162
365_642_01010101.out	Energy:   -7838.1182837
C        -25.41300      -21.87640       20.20890
C        -25.86430      -23.13890       20.41340
C        -25.09770      -24.12430       19.72890
C        -24.05690      -23.55310       19.00480
S        -24.03940      -21.82910       19.17580
C        -23.08470      -24.17910       18.19770
C        -22.91290      -25.54000       17.92740
C        -23.68530      -26.69630       18.40690
O        -23.38470      -27.82580       18.07790
N        -24.77740      -26.54320       19.24120
C        -25.48780      -25.52740       19.86860
O        -26.44470      -25.85360       20.54130
C        -21.83050      -25.77900       17.06700
C        -21.16290      -24.62730       16.66470
S        -21.90000      -23.21940       17.38260
C        -20.06450      -24.48560       15.80180
C        -19.43470      -25.55070       15.17200
C        -18.38170      -25.43310       14.27490
C        -17.73190      -26.51520       13.58520
C        -17.93240      -27.89270       13.67130
C        -17.16050      -28.73300       12.88350
C        -16.19660      -28.21890       12.01470
C        -15.98410      -26.85080       11.91420
C        -16.74930      -25.99220       12.69740
C        -16.73530      -24.55180       12.79510
C        -17.75390      -24.17530       13.81410
O        -18.02520      -23.04630       14.18170
C        -15.96720      -23.69300       12.04630
C        -15.96550      -22.29430       12.17910
C        -15.27650      -21.43820       11.33840
C        -14.52240      -21.74270       10.18780
C        -14.02060      -20.63870        9.52240
C        -14.36090      -19.41710       10.15860
S        -15.30980      -19.70890       11.58770
C        -14.06190      -18.12390        9.78570
C        -13.38660      -17.65350        8.63120
C        -12.76150      -18.42150        7.54280
O        -12.22380      -17.85970        6.61200
N        -12.74850      -19.80700        7.54240
C        -13.23440      -20.86110        8.29830
O        -12.99440      -21.98410        7.90730
C        -13.33970      -16.27170        8.57170
C        -13.93970      -15.62040        9.66640
S        -14.59100      -16.79540       10.78190
C        -14.03100      -14.25290        9.85630
C        -14.54380      -13.67330       11.02560
C        -14.76280      -12.34590       11.30010
C        -14.69660      -11.14060       10.50520
C        -14.41080      -10.93470        9.15770
C        -14.44100       -9.64460        8.64500
C        -14.75860       -8.55670        9.45540
C        -15.05920       -8.73950       10.79770
C        -15.03250      -10.02610       11.32690
C        -15.30300      -10.47050       12.67510
C        -15.16710      -11.94640       12.67400
O        -15.34160      -12.70800       13.60430
C        -15.61620       -9.68070       13.75490
C        -15.77360      -10.14300       15.07090
C        -16.09540       -9.32120       16.13440
C        -16.15350       -9.70050       17.48910
C        -16.47100       -8.67270       18.35950
C        -16.70230       -7.44520       17.68790
S        -16.47990       -7.62390       15.96870
C        -17.09020       -6.22620       18.20190
C        -17.29440       -5.84180       19.55190
C        -17.13430       -6.63910       20.77870
O        -17.30590       -6.14140       21.87180
N        -16.79470       -7.98060       20.73620
C        -16.52480       -8.96700       19.80020
O        -16.31570      -10.08610       20.21730
C        -17.69920       -4.52480       19.67520
C        -17.84650       -3.84220       18.45160
S        -17.42020       -4.89780       17.12590
C        -18.30050       -2.55520       18.22190
C        -18.63790       -1.64760       19.23920
C        -19.20210       -0.41070       19.03400
C        -19.53920        0.55570       20.05550
C        -19.32600        0.52440       21.43010
C        -19.74910        1.60030       22.19900
C        -20.37760        2.69730       21.61140
C        -20.59730        2.74410       20.24140
C        -20.17870        1.67370       19.45660
C        -20.28780        1.45950       18.03100
C        -19.64240        0.15550       17.73440
O        -19.51350       -0.35810       16.63820
C        -20.92400        2.28410       17.13260
C        -21.06740        2.01780       15.76200
C        -21.77560        2.82290       14.88590
C        -22.45070        4.03250       15.13820
C        -23.09460        4.57020       14.03720
C        -22.93670        3.77780       12.87250
S        -21.96060        2.37660       13.20670
C        -23.44960        3.96970       11.60600
C        -24.27080        5.01430       11.11400
C        -24.78420        6.20020       11.81920
O        -25.46980        7.01900       11.24610
N        -24.50740        6.42960       13.15840
C        -23.82760        5.83510       14.20740
O        -23.85530        6.39860       15.28160
C        -24.60540        4.84720        9.78050
C        -24.07020        3.68820        9.18780
S        -23.11760        2.80470       10.35570
C        -24.21790        3.21730        7.89190
C        -24.97800        3.86030        6.90650
C        -25.19690        3.46640        5.60710
C        -24.77670        2.35520        4.80450
C        -23.96120        1.26200        5.10050
C        -23.70640        0.31180        4.12730
C        -24.25670        0.43190        2.84520
C        -25.06650        1.49950        2.51940
C        -25.34600        2.48240        3.48420
C        -26.13260        3.65910        3.41060
C        -26.06550        4.31380        4.73170
O        -26.60970        5.34650        5.06100
C        -26.90580        4.26160        2.38410
C        -27.10930        3.83830        1.12080
H        -25.81510      -20.96130       20.61090
H        -26.71490      -23.40090       21.02680
H        -25.18750      -27.44650       19.45970
H        -21.56070      -26.77830       16.75570
H        -19.71020      -23.47830       15.61730
H        -19.79830      -26.55500       15.37920
H        -18.67710      -28.30470       14.34290
H        -17.30590      -29.80590       12.94200
H        -15.60630      -28.89900       11.41110
H        -15.23200      -26.46340       11.23620
H        -15.31890      -24.12900       11.28900
H        -16.54670      -21.85010       12.97880
H        -14.35660      -22.75060        9.83240
H        -12.25340      -20.15530        6.72640
H        -12.86920      -15.73770        7.75720
H        -13.65030      -13.62330        9.05980
H        -14.77710      -14.35670       11.84220
H        -14.17180      -11.76120        8.50010
H        -14.21700       -9.48200        7.59670
H        -14.77580       -7.55920        9.03080
H        -15.31360       -7.88950       11.42100
H        -15.72280       -8.60880       13.59460
H        -15.60840      -11.19340       15.28480
H        -15.95150      -10.70890       17.82400
H        -16.75910       -8.36670       21.67530
H        -17.90110       -4.07470       20.63760
H        -18.41010       -2.24070       17.19060
H        -18.44580       -1.94730       20.26730
H        -18.83760       -0.32270       21.89850
H        -19.58880        1.58860       23.27120
H        -20.69880        3.52470       22.23410
H        -21.08610        3.60330       19.79610
H        -21.37170        3.19710       17.51960
H        -20.62130        1.11550       15.36040
H        -22.47510        4.51190       16.10720
H        -24.94770        7.29220       13.46550
H        -25.22870        5.55550        9.25210
H        -23.71130        2.28970        7.65220
H        -25.47300        4.78970        7.18420
H        -23.52120        1.14290        6.08270
H        -23.07280       -0.53720        4.35790
H        -24.04030       -0.32690        2.10170
H        -25.47960        1.57080        1.52160
H        -27.38500        5.18840        2.69750
H        -26.68120        2.93440        0.71370
H        -27.73060        4.40770        0.44380
