158
630_450_01010101.out	Energy:   -4721.4262704
C        -30.95310       47.92820       -8.44730
C        -29.87930       47.44920       -7.79000
C        -30.33620       46.36630       -6.91270
C        -31.79270       46.27300       -7.12460
C        -32.12950       47.19820       -8.03570
C        -32.73300       45.39510       -6.52970
N        -33.51520       44.68670       -6.04680
C        -29.54610       45.63570       -6.09770
C        -30.01260       44.56560       -5.22980
C        -28.96630       44.07850       -4.53560
C        -27.77120       44.78040       -4.97020
C        -28.09660       45.71280       -5.87300
C        -27.15790       46.57760       -6.47050
N        -26.37690       47.28680       -6.96170
C        -29.04640       42.99680       -3.59850
C        -30.15510       42.72860       -2.89610
C        -30.28040       41.68840       -1.92100
C        -29.64570       40.51170       -1.96070
C        -29.84440       39.52970       -0.96120
O        -29.15760       38.34000       -1.00390
C        -29.52020       37.54300        0.05670
C        -30.46040       38.24680        0.78830
C        -30.65240       39.48000        0.16130
O        -31.49580       40.44040        0.57980
O        -31.10320       37.85130        1.90300
C        -28.96140       36.26250        0.27230
C        -28.06150       35.75500       -0.58500
C        -27.41970       34.48530       -0.38180
C        -27.15380       33.97360        0.83670
C        -26.45130       32.71000        0.67360
C        -26.28410       32.53480       -0.77500
C        -26.84430       33.59740       -1.37850
C        -25.65530       31.48070       -1.47460
N        -25.14350       30.61640       -2.05610
C        -26.05840       31.92400        1.69350
C        -25.35060       30.65810        1.55380
C        -25.11480       30.16530        2.78400
C        -25.66340       31.09070        3.76180
C        -26.23090       32.13210        3.13780
C        -26.86820       33.18510        3.83210
N        -27.39830       34.04390        4.40600
C        -24.43590       28.92220        3.00900
C        -24.20280       28.41930        4.22790
C        -23.53100       27.16720        4.42550
C        -22.29280       26.93570        3.97090
C        -21.68880       25.67820        4.18810
O        -22.40360       24.51280        4.30820
C        -21.55200       23.44450        4.48800
C        -20.26570       23.96150        4.50130
C        -20.35720       25.34720        4.31140
O        -19.33900       26.22350        4.27770
O        -19.11430       23.28400        4.66600
C        -22.03070       22.11570        4.62490
C        -23.34970       21.87950        4.57520
C        -23.93560       20.57830        4.72580
C        -25.19340       20.40090        5.17630
C        -25.48280       18.96870        5.18930
C        -24.28270       18.31540        4.65160
C        -23.38920       19.27840        4.37460
C        -24.03730       16.94330        4.42070
N        -23.81480       15.82030        4.23140
C        -26.63250       18.41790        5.62350
C        -26.92470       16.98900        5.65410
C        -28.16230       16.82060        6.15440
C        -28.71250       18.12880        6.46720
C        -27.82480       19.08340        6.15750
C        -28.08980       20.45910        6.34240
N        -28.32220       21.58460        6.49860
C        -28.77420       15.53440        6.31750
C        -30.00660       15.37760        6.81380
C        -30.59340       14.08180        6.97160
C        -31.82140       13.90140        7.46940
C        -32.34140       12.59400        7.61520
O        -33.69300       12.34750        7.58660
C        -33.92400       10.99500        7.70030
C        -32.69340       10.38110        7.84520
C        -31.71420       11.37500        7.80440
O        -30.38860       11.18540        7.93390
O        -32.45720        9.06790        8.02040
C        -35.21980       10.43160        7.66340
C        -36.27890       11.16400        8.03060
C        -37.61610       10.64550        8.01100
C        -38.70690       11.42230        7.85830
C        -39.88980       10.56340        7.89570
C        -39.38910        9.20190        8.13380
C        -38.05240        9.27320        8.21210
C        -40.10070        7.98950        8.27860
N        -40.66360        6.98130        8.39400
C        -41.15970       10.98040        7.73540
C        -42.32610       10.11000        7.76640
C        -43.42460       10.85670        7.55470
C        -43.01540       12.24400        7.42270
C        -41.67810       12.33370        7.50400
C        -40.97510       13.54970        7.36400
N        -40.40790       14.55520        7.24170
C        -44.76800       10.35540        7.55090
C        -45.11360        9.12410        7.14660
C        -46.45960        8.60870        7.09440
C        -47.56050        9.28860        7.44130
C        -48.84220        8.69730        7.35300
O        -49.07870        7.41890        6.90000
C        -50.42580        7.13090        6.97020
C        -51.05060        8.27930        7.43780
C        -50.06600        9.24290        7.67850
O        -50.26080       10.49400        8.13310
O        -52.37040        8.47800        7.61210
C        -50.91250        5.85620        6.57690
C        -51.98440        5.28370        7.13580
H        -30.93760       48.69610       -9.13660
H        -28.90810       47.78450       -7.88650
H        -33.08480       47.36330       -8.38930
H        -30.98710       44.23350       -5.15780
H        -26.81480       44.58880       -4.63320
H        -28.21600       42.40010       -3.45930
H        -30.98370       43.31810       -3.07190
H        -30.91160       41.86020       -1.12280
H        -28.99610       40.31540       -2.73820
H        -32.00330       40.31210        1.35690
H        -30.92600       37.00850        2.27200
H        -29.24810       35.71240        1.09700
H        -27.82000       36.30060       -1.42700
H        -27.40720       34.40750        1.73820
H        -26.86300       33.75870       -2.39770
H        -25.07660       30.21470        0.66320
H        -25.62200       30.96430        4.78520
H        -24.11010       28.38750        2.18870
H        -24.51740       28.95120        5.05430
H        -24.02040       26.41650        4.93730
H        -21.78150       27.67450        3.46310
H        -18.45700       25.92060        4.36880
H        -19.13070       22.35520        4.78830
H        -21.36820       21.33630        4.76180
H        -23.98080       22.68100        4.41930
H        -25.84240       21.15000        5.46360
H        -22.45250       19.11900        3.97170
H        -26.29040       16.23600        5.34480
H        -29.64830       18.29750        6.86840
H        -28.24200       14.69470        6.04050
H        -30.54770       16.21190        7.08980
H        -30.04670       13.25310        6.68980
H        -32.39010       14.71650        7.74730
H        -30.04900       10.32110        8.05950
H        -33.17120        8.46150        8.03600
H        -35.34960        9.45590        7.35350
H        -36.12750       12.13720        8.33890
H        -38.70720       12.44700        7.73590
H        -37.42590        8.47250        8.38890
H        -42.31250        9.09020        7.92440
H        -43.65640       13.04130        7.28680
H        -45.51790       10.98290        7.88070
H        -44.35340        8.49320        6.84810
H        -46.58450        7.63920        6.76360
H        -47.47190       10.25990        7.77860
H        -51.12700       10.79050        8.33240
H        -52.97620        7.78650        7.43120
H        -50.41740        5.34920        5.82670
H        -52.49640        5.77080        7.88780
H        -52.29940        4.35480        6.81500
