150
630_746_01010101.out	Energy:   -4416.7081559
C        -17.13300       -4.08120       15.94660
C        -17.39980       -3.84920       14.64910
C        -16.20250       -3.27760       14.03150
C        -15.19340       -3.21570       15.11250
C        -15.77230       -3.69310       16.23090
C        -13.85290       -2.78760       15.05440
N        -12.74480       -2.44360       15.01340
C        -16.08090       -2.88040       12.74420
C        -14.89650       -2.26870       12.14270
C        -15.17080       -1.94860       10.86270
C        -16.52310       -2.40250       10.56790
C        -17.07310       -2.95450       11.66280
C        -18.35370       -3.55130       11.66870
N        -19.40490       -4.04370       11.65880
C        -14.18410       -1.41800        9.95130
C        -14.48030       -0.60910        8.92890
C        -13.62130       -0.08290        7.91500
O        -14.09280        1.06330        7.29130
C        -13.25310        1.48790        6.30300
C        -12.22770        0.56690        6.22510
C        -12.43100       -0.40810        7.24690
O        -11.58640       -1.46830        7.30870
C        -11.42330       -2.11730        8.54400
O        -11.13770        0.60270        5.41500
C        -11.43110        0.82030        4.04040
C        -13.46960        2.71090        5.63680
C        -12.77570        3.80270        6.00930
C        -13.29910        4.94690        5.26930
C        -14.37010        4.41270        4.41170
C        -14.45410        3.08970        4.64220
C        -15.16290        5.09520        3.45990
N        -15.80650        5.65100        2.67080
C        -12.88260        6.21600        5.43660
C        -13.50860        7.39180        4.83740
C        -12.91540        8.48740        5.34110
C        -11.81640        8.06720        6.20090
C        -11.78080        6.72530        6.26140
C        -10.75290        6.00170        6.91150
N         -9.89880        5.41450        7.43710
C        -13.28240        9.81670        4.92850
C        -13.31140       10.86160        5.76080
C        -13.63030       12.18500        5.35210
O        -14.63330       12.83500        6.02780
C        -14.68740       14.16370        5.69140
C        -13.74230       14.35650        4.69540
C        -13.07520       13.11520        4.46850
O        -11.99740       13.04050        3.64360
C        -11.63260       11.76300        3.16130
O        -13.34840       15.55500        4.19420
C        -14.30320       16.16820        3.33620
C        -15.56450       15.05360        6.35840
C        -16.47170       14.61160        7.25670
C        -17.23810       15.76460        7.73330
C        -16.77470       16.85280        7.00240
C        -15.71090       16.48630        6.27670
C        -17.03290       18.32500        7.27890
N        -17.24720       19.54630        7.50820
C        -18.08920       15.94990        8.73550
C        -18.80960       17.11400        9.21450
C        -19.44110       16.78730       10.35900
C        -19.17350       15.38460       10.61840
C        -18.38050       14.93420        9.63930
C        -18.14040       13.46150        9.34970
N        -17.94130       12.23970        9.10940
C        -20.30480       17.65300       11.10600
C        -20.61820       18.90900       10.75530
C        -21.55990       19.62040       11.52900
O        -21.75890       19.34960       12.85080
C        -22.75190       20.14200       13.34230
C        -23.19980       20.95720       12.30060
C        -22.43710       20.62350       11.14820
O        -22.55160       20.98700        9.84790
C        -22.46990       22.38170        9.59600
O        -24.20520       21.84470       12.49880
C        -25.12520       21.97200       11.43020
C        -23.18250       19.99560       14.68380
C        -23.75810       21.00170       15.36310
C        -24.11580       20.51540       16.69030
C        -23.62220       19.11880       16.76000
C        -23.08510       18.83900       15.56460
C        -23.69570       18.20250       17.83870
N        -23.75200       17.44850       18.71200
C        -24.77510       21.25570       17.60240
C        -25.09940       20.82410       18.95240
C        -25.74040       21.82660       19.58770
C        -25.84180       22.94800       18.66690
C        -25.29360       22.62460       17.48520
C        -25.29740       23.49490       16.37080
N        -25.31870       24.21910       15.46420
C        -26.11420       21.82560       20.97930
C        -26.03630       20.75170       21.77510
C        -26.17020       20.82350       23.18360
O        -27.04370       19.95000       23.80510
C        -26.94230       20.10350       25.14290
C        -26.02400       21.07650       25.43210
C        -25.50570       21.53730       24.19170
O        -24.49700       22.45030       24.16990
C        -24.00770       22.90720       22.92770
O        -25.60010       21.49240       26.64920
C        -26.51620       21.23800       27.70400
H        -17.79700       -4.47510       16.63140
H        -18.29420       -4.04100       14.17140
H        -15.31270       -3.76970       17.15170
H        -13.99630       -2.10820       12.62110
H        -16.99050       -2.31340        9.65220
H        -13.19600       -1.67760       10.09720
H        -15.47000       -0.32400        8.86230
H        -10.73200       -2.92650        8.43330
H        -12.36730       -2.49740        8.87460
H        -11.04640       -1.42230        9.26500
H        -10.52030        0.83370        3.47910
H        -11.93380        1.75810        3.92710
H        -12.06000        0.03280        3.68090
H        -12.00760        3.82660        6.69810
H        -15.11620        2.44520        4.18270
H        -14.27470        7.38280        4.14600
H        -11.16540        8.70260        6.68840
H        -13.53590        9.97040        3.94000
H        -13.08990       10.69860        6.75550
H        -10.77440       11.85230        2.52850
H        -12.44540       11.34700        2.60330
H        -11.40200       11.12250        3.98680
H        -13.91880       17.10310        2.98530
H        -15.21170       16.33620        3.87590
H        -14.49720       15.52670        2.50210
H        -16.60170       13.63230        7.55490
H        -15.09670       17.12390        5.74630
H        -18.83430       18.03800        8.75560
H        -19.53060       14.83370       11.41470
H        -20.71560       17.28300       11.97740
H        -20.17730       19.34860        9.93220
H        -22.57120       22.56110        8.54600
H        -21.52260       22.74980        9.93080
H        -23.25420       22.88560       10.12120
H        -25.87320       22.69250       11.68750
H        -25.58990       21.02610       11.24500
H        -24.60790       22.29350       10.55050
H        -23.91960       21.95650       15.00620
H        -22.66300       17.93380       15.30500
H        -24.87590       19.90180       19.35810
H        -26.27230       23.85910       18.88970
H        -26.46330       22.70670       21.38760
H        -25.87120       19.82930       21.34270
H        -27.47770       19.56690       25.84320
H        -23.22280       23.61550       23.09230
H        -24.80070       23.37400       22.38180
H        -23.62840       22.07840       22.36710
H        -26.10690       21.59520       28.62580
H        -26.69320       20.18520       27.77660
H        -27.43880       21.74180       27.50440
