134
630_1225_01010101.out	Energy:   -3578.7063052
C         -2.32000       14.78240       12.82620
C         -2.53770       13.71770       12.03250
C         -3.64320       14.04740       11.12690
C         -4.03820       15.42760       11.47660
C         -3.24650       15.83520       12.48330
C         -5.04460       16.24380       10.91000
N         -5.86610       16.92220       10.44690
C         -4.16580       13.23220       10.18710
C         -5.26780       13.58770        9.30540
C         -5.52710       12.55640        8.47820
C         -4.62960       11.46720        8.82910
C         -3.80510       11.85700        9.82020
C         -2.78920       11.03530       10.36270
N         -1.96320       10.36010       10.80060
C         -6.57740       12.56950        7.49090
C         -6.93770       13.68740        6.83980
C         -7.94720       13.66950        5.85070
C         -9.07950       12.89690        5.68290
C         -9.63720       13.21640        4.42780
C         -8.82840       14.16910        3.83980
N         -7.89620       14.56010        4.79010
C         -6.99170       15.69840        4.70040
C         -8.85400       14.72980        2.54750
C         -7.72940       14.91930        1.82920
C         -8.09250       15.53250        0.56110
C         -9.56250       15.54180        0.53160
C         -9.99230       15.08190        1.71900
C        -10.42450       15.97460       -0.50020
N        -11.12760       16.32980       -1.35190
C         -7.20340       15.98060       -0.34450
C         -7.54020       16.45300       -1.67430
C         -6.39830       16.73240       -2.33250
C         -5.28110       16.49170       -1.43510
C         -5.74110       16.07480       -0.24430
C         -4.92420       15.92350        0.89950
N         -4.26510       15.81790        1.84940
C         -6.33730       17.13020       -3.71060
C         -7.31410       17.82900       -4.30140
C         -7.22060       18.21940       -5.65210
C         -6.15170       18.49560       -6.47790
C         -6.67060       19.02650       -7.67520
C         -8.04840       19.07820       -7.55410
N         -8.37700       18.41460       -6.38420
C         -9.69440       17.94880       -5.97160
C         -9.01620       19.66430       -8.39540
C        -10.18410       20.17260       -7.94410
C        -10.88600       20.77330       -9.05970
C         -9.99370       20.71120      -10.13700
C         -8.89060       20.03670       -9.79400
C        -10.20470       21.43640      -11.45610
N        -10.37980       22.03800      -12.55040
C        -12.14840       21.16320       -9.20620
C        -12.80320       21.96440      -10.22530
C        -14.12410       21.99230       -9.96000
C        -14.35120       21.16680       -8.78240
C        -13.17280       20.67350       -8.37490
C        -12.96510       19.93170       -7.06450
N        -12.79280       19.31630       -5.97750
C        -15.03920       22.77430      -10.74570
C        -16.35320       22.87540      -10.50990
C        -17.17720       23.62590      -11.38540
C        -17.06790       23.90870      -12.73480
C        -18.25090       24.55840      -13.13840
C        -19.06340       24.68010      -12.02860
N        -18.34650       24.21670      -10.93620
C        -18.72820       24.38880       -9.54570
C        -20.39440       25.13190      -11.91520
C        -21.42630       24.27310      -12.04270
C        -22.67660       25.03550      -12.00210
C        -22.26910       26.44150      -11.82070
C        -20.92350       26.47720      -11.80180
C        -23.08370       27.59150      -11.70400
N        -23.74840       28.53770      -11.58870
C        -23.90970       24.50010      -12.13230
C        -25.16910       25.23370      -12.05260
C        -26.19310       24.36350      -12.17390
C        -25.63210       23.04310      -12.41620
C        -24.29030       23.10190      -12.38540
C        -23.46620       21.98140      -12.63660
N        -22.80110       21.05320      -12.84470
C        -27.58710       24.73000      -12.18710
C        -28.09390       25.79080      -11.53720
C        -29.47160       26.10300      -11.63690
C        -30.39410       25.89970      -12.64920
C        -31.63880       26.40480      -12.21830
C        -31.45440       26.91110      -10.95340
N        -30.13410       26.74450      -10.60930
C        -29.58570       27.16020       -9.33410
H         -1.60210       14.83770       13.56540
H         -2.01830       12.82630       12.05680
H         -3.29360       16.75900       12.94090
H         -5.77150       14.48840        9.31270
H         -4.62510       10.53550        8.38540
H         -7.07000       11.68830        7.27680
H         -6.46790       14.57790        7.06630
H         -9.45120       12.20850        6.35590
H        -10.49520       12.81140        4.02170
H         -7.16200       16.21760        3.78050
H         -5.97950       15.35310        4.73300
H         -7.16920       16.36060        5.52190
H         -6.77320       14.67140        2.12810
H        -10.98160       14.99270        1.99910
H         -8.49460       16.55750       -2.05260
H         -4.28610       16.62130       -1.67600
H         -5.50870       16.86730       -4.26690
H         -8.15200       18.08700       -3.75710
H         -5.15490       18.34170       -6.25930
H         -6.12110       19.32400       -8.49650
H        -10.41790       18.22560       -6.70980
H         -9.95290       18.39470       -5.03400
H         -9.67990       16.88390       -5.86820
H        -10.51960       20.13840       -6.96880
H         -8.09320       19.81970      -10.41220
H        -12.33650       22.43260      -11.01780
H        -15.26520       20.99110       -8.33640
H        -14.65560       23.29550      -11.54960
H        -16.76680       22.40600       -9.68910
H        -16.26220       23.68370      -13.33910
H        -18.47090       24.88480      -14.09240
H        -19.68000       24.87490       -9.49470
H        -17.99500       24.98680       -9.04600
H        -18.79080       23.43140       -9.07190
H        -21.34830       23.24980      -12.15090
H        -20.35390       27.33370      -11.71910
H        -25.26140       26.25350      -11.92410
H        -26.18360       22.18760      -12.58650
H        -28.23690       24.14020      -12.73020
H        -27.47490       26.38240      -10.96110
H        -30.20400       25.45560      -13.56120
H        -32.52190       26.39580      -12.75220
H        -32.18280       27.34260      -10.36320
H        -30.35100       27.63130       -8.75320
H        -28.78590       27.85180       -9.49820
H        -29.01530       28.21065      -15.31559
