170
630_805_01010101.out	Energy:   -8754.0264538
C        -38.04080       -3.78760        9.74680
C        -37.90750       -2.60930        9.11170
C        -36.93890       -1.80050        9.85920
C        -36.52750       -2.63610       11.00330
C        -37.18830       -3.80250       10.91280
C        -35.61390       -2.34150       12.04110
N        -34.86680       -2.10800       12.89950
C        -36.52650       -0.55940        9.52800
C        -35.55510        0.22860       10.27960
C        -35.34090        1.38310        9.62510
C        -36.20630        1.42040        8.45930
C        -36.91240        0.27950        8.38380
C        -37.85370        0.01690        7.36370
N        -38.62040       -0.18770        6.51650
C        -34.46180        2.39640       10.12810
C        -33.59010        3.06710        9.36460
C        -32.76270        4.10440        9.89090
S        -31.17540        4.20460        9.26580
C        -30.76100        5.57950       10.21280
C        -31.84200        5.96710       11.00950
C        -32.99540        5.11150       10.82520
S        -34.60220        5.29800       11.58800
C        -34.23280        5.95500       13.22620
C        -34.22670        7.48220       13.18850
C        -33.36620        8.09180       12.08740
S        -31.73680        7.33730       12.14740
C        -29.42940        6.06660       10.00600
C        -28.99500        7.23580       10.48030
C        -27.71070        7.79900       10.23750
C        -27.60280        9.08410        9.85820
C        -26.19230        9.41560        9.78130
C        -25.47160        8.19780       10.18650
C        -26.38860        7.25290       10.45270
C        -24.08180        7.98870       10.32340
N        -22.94110        7.80360       10.43620
C        -25.72770       10.62740        9.42710
C        -24.32190       10.99260        9.39200
C        -24.24820       12.29150        9.05470
C        -25.57820       12.80900        8.82170
C        -26.47240       11.82960        9.03310
C        -27.85910       12.01620        8.85690
N        -29.00300       12.18140        8.71040
C        -23.00730       12.98030        8.96280
C        -22.72120       14.06120        9.70410
C        -21.43140       14.65990        9.64480
S        -20.08050       13.65840        9.40830
C        -18.99060       14.95810        9.22990
C        -19.62280       16.15860        9.54470
C        -21.02660       15.97190        9.84590
S        -22.21390       17.18970       10.35520
C        -21.20980       18.30420       11.35670
C        -20.60600       19.40740       10.49400
C        -19.89900       18.94760        9.22160
S        -18.68120       17.66800        9.56880
C        -17.63260       14.69260        8.86910
C        -17.20710       13.45680        8.56820
C        -15.84530       13.10900        8.32980
C        -15.38750       11.87690        8.62530
C        -13.98430       11.82190        8.26040
C        -13.66560       13.13110        7.66880
C        -14.78360       13.87670        7.71460
C        -12.46240       13.59690        7.10900
N        -11.47340       13.99250        6.64390
C        -13.19130       10.75380        8.45320
C        -11.79170       10.70850        8.08190
C        -11.31860        9.47750        8.34380
C        -12.37140        8.70790        8.98070
C        -13.49400        9.44270        9.04200
C        -14.70120        8.96750        9.59980
N        -15.68820        8.56160       10.05550
C         -9.95450        9.09640        8.13500
C         -9.18330        9.63090        7.17370
C         -7.80180        9.31880        7.04360
S         -6.88550        9.00600        8.45020
C         -5.45760        8.71840        7.57130
C         -5.63800        8.93670        6.21300
C         -6.99750        9.31010        5.90730
S         -7.70470        9.68290        4.31460
C         -6.32470       10.34970        3.36220
C         -5.51050        9.24100        2.69630
C         -5.04840        8.11870        3.61700
S         -4.27070        8.81310        5.08410
C         -4.33940        8.36290        8.36450
C         -3.42470        7.46630        7.97490
C         -2.26540        7.12810        8.75020
C         -2.02690        7.55840       10.00500
C         -0.76050        7.01040       10.45610
C         -0.25880        6.20110        9.34000
C         -1.15800        6.27980        8.34550
C          0.94040        5.46060        9.24460
N          1.92040        4.84820        9.15530
C         -0.22660        7.24780       11.66950
C          1.03160        6.69040       12.14630
C          1.24940        7.15840       13.38420
C          0.14210        8.02010       13.76250
C         -0.74600        8.08980       12.75880
C         -1.92860        8.85270       12.83760
N         -2.90170        9.48030       12.90460
C          2.41260        6.83030       14.14960
C          3.24100        7.77490       14.60430
C          4.33660        7.39450       15.41300
S          5.83160        7.07800       14.67040
C          6.58660        6.63960       16.15320
C          5.70010        6.80560       17.22200
C          4.39180        7.22670       16.78650
S          2.93530        7.55230       17.75530
C          3.04540        6.33610       19.07760
C          3.84550        6.88160       20.25430
C          5.18740        7.52410       19.90840
S          6.21690        6.44690       18.88790
C          7.96380        6.24090       16.16430
C          8.56310        5.60010       15.15060
H        -38.65600       -4.56030        9.44770
H        -38.39990       -2.32470        8.25050
H        -37.10030       -4.58890       11.57530
H        -35.10730       -0.05340       11.16560
H        -36.26940        2.20390        7.79060
H        -34.50260        2.62170       11.13440
H        -33.51400        2.82660        8.36390
H        -33.27170        5.60470       13.53980
H        -34.98250        5.62400       13.91410
H        -33.86270        7.83690       14.13010
H        -35.23340        7.78220       12.98450
H        -33.28030        9.14740       12.24020
H        -33.81560        7.91470       11.13270
H        -28.77330        5.48390        9.46280
H        -29.64440        7.77660       11.07260
H        -28.38710        9.72390        9.65680
H        -26.18250        6.29010       10.76170
H        -23.52460       10.36800        9.59000
H        -25.80390       13.77540        8.53850
H        -22.29760       12.63430        8.29830
H        -23.44310       14.46230       10.32310
H        -20.42090       17.74750       11.81790
H        -21.83270       18.75250       12.10220
H        -19.89410       19.93790       11.09120
H        -21.43200       20.00370       10.16670
H        -19.40520       19.78570        8.77610
H        -20.63320       18.54090        8.55800
H        -16.96020       15.47490        8.83950
H        -17.91330       12.70690        8.50500
H        -15.93790       11.10780        9.03840
H        -14.87100       14.84410        7.36590
H        -11.24860       11.49020        7.68310
H        -12.27240        7.74290        9.33290
H         -9.54460        8.37750        8.75160
H         -9.60880       10.29210        6.50530
H         -5.68580       10.90300        4.01830
H         -6.72260       10.97920        2.59390
H         -4.64140        9.68770        2.26020
H         -6.16600        8.78410        1.98460
H         -4.34320        7.50240        3.09940
H         -5.89390        7.53200        3.91010
H         -4.22440        8.81570        9.28480
H         -3.56060        6.99270        7.06810
H         -2.64370        8.17630       10.55520
H         -1.07460        5.80850        7.43130
H          1.64740        6.04820       11.62340
H          0.05200        8.50610       14.66840
H          2.61680        5.83990       14.35560
H          3.08350        8.76720       14.36880
H          3.52670        5.45610       18.70480
H          2.05590        6.10720       19.41440
H          4.03400        6.07070       20.92660
H          3.24850        7.66520       20.67180
H          5.71000        7.74090       20.81660
H          4.99050        8.41550       19.35010
H          8.52640        6.46000       17.00120
H          8.02820        5.36650       14.29960
H          9.55940        5.34050       15.22140
