174
630_185_01010101.out	Energy:   -7682.7613972
C         -4.76010       -8.02370       18.98060
C         -5.58630       -8.53430       18.05070
C         -6.50900       -7.47700       17.61520
C         -6.10240       -6.27430       18.39000
C         -5.07460       -6.62750       19.17720
C         -6.58710       -4.95690       18.28790
N         -6.96860       -3.86370       18.20010
C         -7.48750       -7.59500       16.69750
C         -8.45550       -6.55890       16.30720
C         -9.19590       -7.00880       15.27010
C         -8.81480       -8.39140       15.01950
C         -7.80920       -8.74710       15.85140
C         -7.20360      -10.02220       15.81000
N         -6.69540      -11.06560       15.75410
C        -10.25300       -6.23560       14.65040
C        -10.72240       -6.38820       13.39260
C        -11.83250       -5.64750       12.82980
C        -12.79970       -5.13410       13.68080
S        -14.09060       -4.40210       12.86550
C        -13.40950       -4.78480       11.36310
C        -12.17140       -5.41470       11.40880
C        -11.54550       -5.68020       10.11780
C        -10.09310       -6.14920       10.10720
C         -9.20130       -5.58790        9.01890
C        -12.34630       -5.48290        8.90770
C        -13.56570       -4.83140        9.09750
N        -14.08800       -4.45790       10.26530
S        -14.43930       -4.48120        7.68600
C        -13.28420       -5.25330        6.72250
C        -12.24550       -5.79070        7.46290
C        -11.29790       -6.58150        6.73830
C        -10.29890       -6.13240        5.94000
C         -9.52690       -7.28610        5.46130
C        -10.18970       -8.46360        6.04400
C        -11.25760       -8.03340        6.73990
C         -9.89470       -9.82740        5.83490
N         -9.65230      -10.95000        5.67320
C         -8.46120       -7.23380        4.63190
C         -7.60740       -8.37150        4.26140
C         -6.71150       -7.95830        3.34890
C         -6.95670       -6.54200        3.08090
C         -7.95130       -6.08960        3.87060
C         -8.45160       -4.75510        3.82540
N         -8.83810       -3.67540        3.79690
C         -5.73120       -8.82270        2.73530
C         -5.76270       -9.08840        1.41850
C         -4.82400       -9.84890        0.64740
C         -4.24900      -10.97530        1.20810
S         -2.97160      -11.58920        0.27870
C         -3.18130      -10.37140       -0.88190
C         -4.28810       -9.54490       -0.68780
C         -4.55660       -8.60890       -1.76550
C         -5.96150       -8.18630       -2.22360
C         -7.15950       -8.24850       -1.30370
C         -3.45430       -8.31110       -2.66870
C         -2.43520       -9.25790       -2.70600
N         -2.31190      -10.30530       -1.89260
S         -1.29660       -9.03680       -3.93850
C         -1.99770       -7.55540       -4.36790
C         -3.10260       -7.22490       -3.59380
C         -3.63570       -5.88940       -3.68950
C         -4.29000       -5.17670       -2.74160
C         -4.42770       -3.78980       -3.20270
C         -3.69660       -3.71070       -4.46840
C         -3.30990       -4.95570       -4.77630
C         -3.49520       -2.60080       -5.32310
N         -3.32000       -1.69540       -6.02610
C         -5.11670       -2.80710       -2.59050
C         -5.05100       -1.39520       -2.94820
C         -5.90670       -0.71940       -2.16510
C         -6.57680       -1.66450       -1.28720
C         -6.10520       -2.90290       -1.51000
C         -6.69580       -4.06510       -0.95610
N         -7.20730       -4.99670       -0.49830
C         -6.13620        0.68500       -2.31710
C         -5.97780        1.58530       -1.33590
C         -6.38220        2.95890       -1.42730
C         -7.43710        3.32250       -2.24770
S         -7.95960        4.91340       -1.97330
C         -6.77680        5.13100       -0.77950
C         -5.90650        4.06230       -0.61170
C         -4.80910        4.26600        0.29980
C         -3.55970        3.39860        0.19120
C         -2.52460        4.02730       -0.73600
C         -4.87150        5.40470        1.18530
C         -5.83190        6.36440        0.86640
N         -6.73880        6.28120       -0.10840
S         -5.78760        7.76530        1.81440
C         -4.56130        7.11280        2.78330
C         -4.17720        5.83640        2.39970
C         -3.29680        5.09530        3.26050
C         -3.32050        3.76770        3.51530
C         -2.39610        3.47200        4.61300
C         -1.95120        4.77660        5.10760
C         -2.40090        5.70340        4.24740
C         -1.16540        5.08690        6.24030
N         -0.54590        5.36370        7.17980
C         -2.01850        2.24040        5.01740
C         -1.25120        1.93580        6.22360
C         -1.03950        0.60440        6.27140
C         -1.61200        0.00650        5.08110
C         -2.23630        0.94760        4.35140
C         -2.85830        0.68370        3.11300
N         -3.36680        0.45150        2.09570
C         -0.40090       -0.05180        7.37570
C          0.83520       -0.56530        7.37790
C          1.50800       -1.07950        8.53800
C          2.19250       -2.27780        8.40600
S          2.97240       -2.75070        9.83660
C          2.40620       -1.37560       10.65660
C          1.61990       -0.51030        9.88800
C          1.15070        0.67230       10.57520
C          0.34830        1.80270        9.95400
C          1.21080        2.88450        9.33230
C          1.46920        0.82390       11.96310
C          2.25900       -0.14050       12.55920
N          2.74470       -1.22150       11.94510
S          2.57930        0.15790       14.20280
C          1.63630        1.58050       14.18630
C          1.11480        1.82860       12.93640
H         -4.01960       -8.54570       19.47470
H         -5.57450       -9.50540       17.70170
H         -4.58180       -5.99520       19.82700
H         -8.55390       -5.63420       16.75480
H         -9.24690       -9.00750       14.31330
H        -10.68920       -5.49740       15.22480
H        -10.25590       -7.08330       12.78900
H        -12.73870       -5.19250       14.70930
H        -10.09780       -7.21430       10.00440
H         -9.67600       -5.78870       11.02420
H         -9.55960       -5.90920        8.06320
H         -8.20070       -5.93920        9.16120
H         -9.21380       -4.51890        9.06360
H        -13.34680       -5.31710        5.69430
H        -10.11190       -5.14450        5.70750
H        -11.94630       -8.64460        7.20600
H         -7.68340       -9.32880        4.63930
H         -6.44420       -5.97280        2.38940
H         -4.99230       -9.24460        3.31930
H         -6.56240       -8.69590        0.89750
H         -4.56390      -11.39620        2.09610
H         -6.19910       -8.80200       -3.06580
H         -5.84280       -7.13230       -2.36470
H         -7.38600       -9.27040       -1.08170
H         -8.00080       -7.79260       -1.78250
H         -6.93960       -7.72650       -0.39600
H         -1.63930       -6.95780       -5.12910
H         -4.63510       -5.54770       -1.84260
H         -2.84550       -5.22310       -5.65820
H         -4.44900       -0.98510       -3.67920
H         -7.30460       -1.42120       -0.59720
H         -6.44340        1.02680       -3.24110
H         -5.53640        1.26970       -0.45810
H         -7.85940        2.69440       -2.94930
H         -3.83460        2.43880       -0.19370
H         -3.12750        3.30710        1.16580
H         -2.93900        4.12730       -1.71750
H         -1.65670        3.40300       -0.77720
H         -2.25220        4.99280       -0.36390
H         -4.14110        7.61550        3.58060
H         -3.89780        3.07310        3.01600
H         -2.15080        6.70420        4.27700
H         -0.92620        2.62340        6.92110
H         -1.54950       -0.99280        4.83110
H         -0.94470       -0.13580        8.24880
H          1.34230       -0.59390        6.47960
H          2.22430       -2.82390        7.53090
H         -0.25650        2.24770       10.71630
H         -0.23940        1.37710        9.16760
H          1.81650        3.33680       10.08950
H          0.58390        3.62780        8.88580
H          1.84040        2.45200        8.58300
H          1.47670        2.18030       15.01090
H          0.52960        2.65010       12.71770
