146
630_413_01010101.out	Energy:   -3710.9179681
C         -0.21190        9.15780      -25.39110
C         -1.49960        9.53800      -25.47560
C         -1.73270       10.58360      -24.47050
C         -0.43640       10.76070      -23.78730
C          0.44330        9.91380      -24.34990
C         -0.09960       11.63340      -22.72650
N          0.17980       12.34630      -21.85430
C         -2.89970       11.23110      -24.25620
C         -3.11000       12.29080      -23.27130
C         -4.37570       12.74530      -23.37310
C         -5.05190       11.94600      -24.38480
C         -4.19680       11.06030      -24.92470
C         -4.55540       10.14520      -25.94420
N         -4.86870        9.41340      -26.78200
C         -4.95170       13.77450      -22.54220
C         -4.24650       14.79330      -22.02740
C         -4.87360       15.75730      -21.20950
N         -4.78750       15.68030      -19.82790
C         -4.03880       14.66590      -19.08850
C         -4.83790       13.40680      -18.79240
C         -5.45160       16.77010      -19.28670
C         -5.93510       17.53520      -20.33050
C         -5.56600       16.90460      -21.53510
C         -5.52850       16.97710      -17.89700
C         -4.56340       17.64190      -17.22970
C         -4.97560       17.75420      -15.82710
C         -6.32410       17.16600      -15.76560
C         -6.61810       16.68890      -16.98680
C         -7.19100       17.05250      -14.65570
N         -7.90530       16.95770      -13.74580
C         -4.23170       18.26970      -14.82610
C         -4.67710       18.45690      -13.44390
C         -3.65340       18.95610      -12.72660
C         -2.52020       19.14670      -13.62230
C         -2.84370       18.74420      -14.86240
C         -1.93560       18.76100      -15.94580
N         -1.17230       18.77290      -16.82630
C         -3.76940       19.41390      -11.36390
C         -3.90550       20.72730      -11.13900
C         -3.97470       21.33040       -9.86120
N         -3.78630       22.70680       -9.66770
C         -3.09390       23.63080      -10.56530
C         -3.08210       23.44750      -12.07580
C         -4.19070       23.03080       -8.35350
C         -4.39320       21.81590       -7.70840
C         -4.23720       20.77130       -8.62920
C         -4.33740       24.35300       -7.81180
C         -4.89740       24.51310       -6.58080
C         -4.85050       25.92460       -6.21490
C         -4.33170       26.62590       -7.38110
C         -4.01240       25.69690       -8.29310
C         -4.23520       28.01890       -7.61210
N         -4.15240       29.16200       -7.79610
C         -5.10600       26.42420       -4.99470
C         -4.74290       27.76420       -4.57790
C         -4.92250       27.86490       -3.25030
C         -5.46650       26.61410       -2.76800
C         -5.62460       25.76740       -3.80270
C         -6.84980       24.87490       -3.69030
N         -7.86620       24.13450       -3.59710
C         -4.66000       29.03250       -2.46820
C         -3.91200       30.04600       -2.91740
C         -3.37640       31.02020       -2.05900
N         -2.56360       30.68810       -0.97910
C         -2.27360       29.32910       -0.51750
C         -0.97750       28.71540       -1.00690
C         -2.05920       31.88180       -0.45890
C         -2.56150       32.92630       -1.21420
C         -3.38360       32.38790       -2.21250
C         -1.15380       31.93960        0.61930
C         -1.31150       31.21760        1.73970
C         -0.22950       31.51810        2.65390
C          0.52830       32.60700        2.02480
C         -0.03900       32.85130        0.83030
C          1.60300       33.35580        2.55400
N          2.48480       33.97040        2.99260
C         -0.06390       30.88850        3.83080
C          0.98030       31.19140        4.79100
C          0.75610       30.46640        5.90340
C         -0.36990       29.58350        5.66020
C         -0.87540       29.82340        4.44150
C         -2.00500       29.14250        3.93530
N         -2.93960       28.58980        3.52310
C          1.53480       30.55340        7.10550
C          2.09850       31.69520        7.51920
C          2.76970       31.76070        8.75900
N          3.78660       32.67040        8.97300
C          4.32560       33.64540        8.03350
C          5.48420       33.09950        7.21570
C          4.25340       32.52630       10.25990
C          3.52740       31.53280       10.87650
C          2.59640       31.05190        9.93500
H          0.23750        8.43830      -25.97880
H         -2.20120        9.16090      -26.13180
H          1.43460        9.81870      -24.07910
H         -2.40240       12.63620      -22.60410
H         -6.04450       12.04500      -24.64930
H         -5.96090       13.72450      -22.33240
H         -3.23790       14.87250      -22.23110
H         -3.72250       15.09100      -18.15890
H         -3.21580       14.37410      -19.70690
H         -5.67510       13.65300      -18.17340
H         -4.21490       12.70000      -18.28520
H         -5.18600       12.98110      -19.71030
H         -6.47130       18.41260      -20.24330
H         -5.77580       17.24030      -22.48810
H         -3.68780       18.00760      -17.63540
H         -7.48750       16.19280      -17.23800
H         -5.61880       18.24200      -13.08040
H         -1.60450       19.53360      -13.34500
H         -3.74810       18.74400      -10.57910
H         -3.96440       21.34740      -11.96170
H         -2.06890       23.63180      -10.25800
H         -3.67710       24.52120      -10.45660
H         -2.51910       22.57220      -12.32450
H         -2.63300       24.30300      -12.53540
H         -4.08600       23.33830      -12.42970
H         -4.62230       21.70150       -6.70870
H         -4.30650       19.76270       -8.42170
H         -5.29180       23.75700       -5.99960
H         -3.59270       25.90190       -9.21330
H         -4.40290       28.51590       -5.19780
H         -5.69740       26.40370       -1.78440
H         -5.06330       29.09580       -1.52040
H         -3.72180       30.11470       -3.92940
H         -3.07520       28.69750       -0.83950
H         -2.16990       29.40490        0.54480
H         -1.01240       28.60970       -2.07110
H         -0.84610       27.75350       -0.55700
H         -0.15880       29.34970       -0.73810
H         -2.36460       33.92870       -1.06760
H         -3.89970       32.91920       -2.93100
H         -2.08100       30.55420        1.92070
H          0.26960       33.57610        0.16360
H          1.76150       31.85010        4.64640
H         -0.72710       28.87860        6.32390
H          1.66540       29.70200        7.67390
H          2.04160       32.53690        6.92480
H          4.66730       34.49720        8.58360
H          3.54250       33.90080        7.35060
H          6.28800       32.83300        7.86980
H          5.81790       33.84700        6.52670
H          5.16250       32.23400        6.67500
H          5.01790       33.07060       10.68940
H          3.64330       31.20210       11.84720
H          1.90570       30.30190       10.09440
