114
630_41_01010101.out	Energy:   -3333.0027859
C         -2.21660       10.21490      -11.40880
C         -3.48420       10.35450      -10.95410
C         -3.44140       10.64690       -9.53160
C         -2.00950       10.67170       -9.17570
C         -1.29510       10.41160      -10.30880
C         -1.47250       10.92100       -7.89860
N         -1.01170       11.12310       -6.86040
C         -4.49880       10.85030       -8.68850
C         -4.45410       11.11860       -7.27730
C         -5.73420       11.23760       -6.79680
C         -6.65440       11.05240       -7.92000
C         -5.93760       10.82140       -9.04920
C         -6.47380       10.59420      -10.33250
N         -6.94320       10.41210      -11.36980
C         -6.18010       11.47060       -5.45610
C         -5.36720       11.63610       -4.38780
C         -5.87330       11.80970       -3.04370
C         -5.08850       11.99560       -1.96500
N         -7.27530       11.84970       -2.93500
N         -7.71690       11.36980       -1.84380
C         -9.08100       11.49130       -1.70620
C         -9.84150       10.80000       -0.79890
C        -11.21870       11.16220       -0.98850
C        -11.22850       12.18690       -2.05800
C         -9.95130       12.36430       -2.48830
C        -12.36420       12.85850       -2.55440
N        -13.27330       13.42720       -2.97790
C        -12.31910       10.60190       -0.38840
C        -13.70090       10.88150       -0.65110
C        -14.48380        9.99420        0.04570
C        -13.59910        9.12830        0.82630
C        -12.31130        9.49000        0.59240
C        -11.17250        8.90730        1.18390
N        -10.25870        8.41480        1.68560
C        -15.91290        9.89460       -0.01700
C        -16.61170        8.83810        0.44560
C        -18.05630        8.68330        0.31950
C        -18.93300        9.70580        0.28670
N        -18.59640        7.39430        0.21710
N        -17.70450        6.48090        0.14270
C        -18.21730        5.22540       -0.05230
C        -17.44940        4.09410       -0.18160
C        -18.31280        2.98250       -0.45540
C        -19.69000        3.52830       -0.46500
C        -19.62240        4.86480       -0.22590
C        -20.87020        2.78840       -0.68260
N        -21.84910        2.20460       -0.85670
C        -17.94470        1.68090       -0.69860
C        -18.78850        0.57540       -1.03850
C        -18.01500       -0.54390       -1.24130
C        -16.61790       -0.17120       -1.01420
C        -16.56140        1.14660       -0.69220
C        -15.38730        1.87050       -0.40200
N        -14.41180        2.43960       -0.16980
C        -18.49010       -1.83740       -1.62300
C        -17.69540       -2.91190       -1.82950
C        -18.14110       -4.22950       -2.23780
C        -19.41900       -4.64970       -2.32550
N        -17.06950       -5.11530       -2.44750
N        -17.33760       -6.10220       -3.19780
C        -16.37060       -7.07500       -3.23110
C        -15.43420       -7.36570       -2.26400
C        -14.70150       -8.52280       -2.67660
C        -15.28570       -8.93960       -3.97200
C        -16.28990       -8.07410       -4.28270
C        -14.88040      -10.04340       -4.74840
N        -14.56880      -10.94270       -5.39950
C        -13.64160       -9.11750       -2.02940
C        -12.87570      -10.24750       -2.45210
C        -11.91070      -10.52490       -1.50940
C        -12.04080       -9.54250       -0.43320
C        -13.06320       -8.69870       -0.73040
C        -13.49450       -7.61880        0.06580
N        -13.82650       -6.74130        0.73610
C        -10.95820      -11.58750       -1.57400
C        -10.03060      -11.84850       -0.62340
C         -9.05460      -12.91440       -0.68150
C         -9.04780      -13.95650       -1.52930
N         -8.09990      -12.85340        0.36980
N         -6.97350      -13.29040        0.06310
H         -1.91060        9.99300      -12.42020
H         -4.39110       10.26570      -11.52890
H         -0.22000       10.35770      -10.38970
H         -3.54480       11.20000       -6.70510
H         -7.72990       11.09580       -7.83630
H         -7.25570       11.50310       -5.30270
H         -4.28780       11.61120       -4.49900
H         -4.01220       12.03670       -2.04270
H         -5.52090       12.13840       -0.98500
H         -9.47990       10.07050       -0.09360
H         -9.60410       13.02490       -3.26730
H        -14.05660       11.64460       -1.32370
H        -13.92950        8.34500        1.49100
H        -16.42380       10.70500       -0.53030
H        -16.09410        7.99100        0.88470
H        -18.62420       10.73730        0.36700
H        -19.99260        9.51840        0.18860
H        -16.37570        4.04880       -0.10790
H        -20.44060        5.56540       -0.16730
H        -19.86100        0.62580       -1.13190
H        -15.77630       -0.84210       -1.09260
H        -19.56550       -1.92190       -1.75500
H        -16.61950       -2.82590       -1.70970
H        -20.25880       -4.01050       -2.09850
H        -19.64160       -5.66780       -2.61140
H        -15.29270       -6.81800       -1.34740
H        -16.92250       -8.09590       -5.15630
H        -13.03720      -10.79510       -3.36610
H        -11.41990       -9.50240        0.44850
H        -11.01040      -12.20990       -2.46340
H         -9.95850      -11.21820        0.25800
H         -9.80860      -14.10330       -2.28140
H         -8.27830      -14.71180       -1.45630
H         -6.37680      -13.24310        0.90830
