186
630_913_01010101.out	Energy:   -4875.9038501
C         20.41410       -0.01650       -6.66600
C         19.22360        0.32650       -7.51630
C         19.51180       -0.40950       -8.80660
C         20.70650       -1.06800       -8.68100
C         21.25600       -0.80250       -7.35530
C         21.37450       -1.82830       -9.66400
N         21.95030       -2.42770      -10.46230
C         18.54330       -0.45060       -9.85820
C         17.68660        0.55630      -10.24340
C         16.75120        0.02440      -11.18760
C         17.06600       -1.35980      -11.36890
C         18.13670       -1.67090      -10.55830
C         18.57990       -2.93810      -10.15090
N         18.87510       -3.93580       -9.64680
C         15.59490        0.64700      -11.67930
C         15.20910        1.94410      -11.38470
C         13.91440        2.44870      -11.60190
C         12.73960        1.64080      -11.64210
C         11.60870        2.48100      -11.89490
C         12.04320        3.77230      -11.95770
C         13.47220        3.82680      -11.74860
C         14.17760        5.01660      -11.68360
C         15.63000        5.21110      -11.50270
C         15.88560        6.53050      -11.43080
C         14.60920        7.24430      -11.55940
C         13.60290        6.31670      -11.72970
N         14.48920        8.58100      -11.52770
N         12.75810        0.35380      -11.20650
C         11.78050       -0.58050      -11.05980
C         10.53830       -0.56570      -11.62060
C          9.54240       -1.52370      -11.31680
C          8.20870       -1.44040      -11.70670
C          7.47010       -2.44850      -11.04690
C          8.44690       -3.24210      -10.27500
C          9.67730       -2.68060      -10.44420
C          8.15030       -4.38500       -9.50740
N          7.91140       -5.32090       -8.87650
C          6.08770       -2.54650      -10.95600
C          5.34660       -3.25020       -9.97590
C          4.03900       -2.78590       -9.98680
C          3.90650       -1.84500      -11.08740
C          5.12310       -1.69610      -11.68310
C          5.40520       -0.89720      -12.80700
N          5.60920       -0.24580      -13.73730
C          3.05490       -2.93920       -8.97180
C          3.06630       -3.84790       -7.95790
C          2.24420       -3.63040       -6.79330
C          2.09570       -2.37470       -6.20340
C          1.11980       -2.45220       -5.14410
C          0.70300       -3.74140       -5.05570
C          1.37190       -4.53620       -6.07430
C          1.12690       -5.87430       -6.30270
C          1.69200       -6.70220       -7.38150
C          1.22220       -7.95630       -7.25310
C          0.34350       -7.98920       -6.08040
C          0.27960       -6.73160       -5.53450
N         -0.31020       -9.10840       -5.67990
N          2.88240       -1.26630       -6.44360
C          4.19840       -1.35490       -6.79640
C          4.96120       -0.30660       -7.20820
C          6.35810       -0.42490       -7.46120
C          7.21060        0.56410       -7.93370
C          8.54590        0.08690       -7.89960
C          8.47530       -1.30390       -7.40800
C          7.16690       -1.60430       -7.17630
C          9.56990       -2.18010       -7.28610
N         10.46750       -2.90160       -7.20910
C          9.71770        0.77570       -8.18100
C         11.04320        0.42030       -7.81550
C         11.91370        1.43480       -8.18700
C         11.12860        2.45540       -8.86610
C          9.81510        2.08590       -8.84990
C          8.75740        2.81130       -9.43060
N          7.92260        3.43210       -9.92940
C         13.29370        1.52970       -7.84330
C         14.11410        2.53400       -8.26290
C         15.42690        2.84030       -7.78540
C         15.92790        4.16250       -7.70470
C         17.19750        4.14640       -7.05060
C         17.49050        2.85240       -6.72360
C         16.45720        1.98670       -7.24220
C         16.64180        0.60430       -7.40110
C         15.84810       -0.33210       -8.06100
C         16.39940       -1.62270       -7.97330
C         17.58930       -1.55910       -7.27890
C         17.87340       -0.12930       -6.88410
N         18.41740       -2.57630       -6.99170
N         15.39300        5.34790       -8.15370
C         14.10050        5.75530       -8.26000
C         13.03330        5.21710       -7.59640
C         11.69940        5.63080       -7.81950
C         11.21820        6.53280       -8.77120
C          9.81210        6.56690       -8.71180
C          9.41660        5.63990       -7.63180
C         10.55250        5.09630       -7.10590
C          8.10660        5.38660       -7.18200
N          7.05020        5.17170       -6.77040
C          8.94510        7.30120       -9.52150
C          7.53820        7.24050       -9.57190
C          7.06710        8.14230      -10.52470
C          8.21770        8.80960      -11.10130
C          9.35090        8.31320      -10.51690
C         10.65190        8.74530      -10.80700
N         11.70330        9.14600      -11.07350
C          5.70730        8.37310      -10.85590
C          5.27750        9.24780      -11.81360
C          3.91110        9.50380      -12.13250
C          3.38980        9.81770      -13.39410
C          1.95240        9.89720      -13.30600
C          1.57990        9.60300      -12.03410
C          2.77020        9.41250      -11.22800
C          2.73630        9.38810       -9.84880
C          3.84810        9.66500       -8.92030
C          3.38580        9.58350       -7.65960
C          1.96580        9.22900       -7.72210
C          1.58070        9.15970       -9.03680
N          1.19640        9.06710       -6.61520
N          4.01170        9.97510      -14.60000
C          5.26490        9.53550      -14.97830
C          5.78440        9.82020      -16.17270
H         20.53930        0.36410       -5.66370
H         19.18120        1.40630       -7.69760
H         22.20600       -1.19190       -7.01940
H         17.73010        1.58320       -9.91530
H         16.50850       -2.04840      -11.98480
H         14.96080        0.04520      -12.32610
H         15.94580        2.60020      -10.93530
H         10.58330        2.16090      -11.97040
H         11.41760        4.63550      -12.12290
H         16.36140        4.42090      -11.46430
H         16.84270        7.01560      -11.31040
H         12.55780        6.54380      -11.85610
H         15.27270        9.15470      -11.27290
H         13.55560        8.97790      -11.46670
H         13.64490        0.08810      -10.78840
H         12.08620       -1.40680      -10.42490
H         10.25390        0.22720      -12.30140
H          7.79200       -0.67060      -12.33570
H         10.59750       -3.02980      -10.00170
H          5.76710       -3.92540       -9.24880
H          2.98530       -1.35650      -11.36690
H          2.27860       -2.17720       -8.96030
H          3.72200       -4.71180       -7.99520
H          0.82520       -1.62050       -4.52190
H         -0.01780       -4.13520       -4.35570
H          2.34910       -6.33590       -8.15310
H          1.42820       -8.81200       -7.87820
H         -0.28390       -6.44300       -4.66230
H         -0.00630       -9.99590       -6.03910
H         -0.74710       -9.10800       -4.77480
H          2.50300       -0.35570       -6.22340
H          4.61230       -2.35510       -6.73270
H          4.50810        0.67230       -7.33360
H          6.91810        1.56110       -8.22220
H          6.79000       -2.55390       -6.82870
H         11.32010       -0.47020       -7.27510
H         11.51970        3.36870       -9.28450
H         13.65340        0.79850       -7.12560
H         13.70500        3.26640       -8.95290
H         17.77540        5.02750       -6.81540
H         18.34660        2.52920       -6.15280
H         14.93840       -0.11370       -8.59860
H         15.96790       -2.51440       -8.40090
H         17.95330       -0.02470       -5.79640
H         18.34380       -3.41650       -7.55160
H         19.34210       -2.35660       -6.65600
H         16.08340        6.03400       -8.43270
H         13.97220        6.62560       -8.89730
H         13.20060        4.42570       -6.87390
H         11.82030        7.08440       -9.47400
H         10.61250        4.38150       -6.29940
H          6.92250        6.58400       -8.97880
H          8.18460        9.57350      -11.86350
H          4.97470        7.78140      -10.31420
H          6.01890        9.76960      -12.41230
H          1.30810       10.12980      -14.14120
H          0.57320        9.59860      -11.64560
H          4.83640        9.96710       -9.22620
H          3.92640        9.75570       -6.74130
H          0.59900        8.90380       -9.40120
H          1.65860        8.90800       -5.73710
H          0.28870        8.64990       -6.72880
H          3.43380       10.34290      -15.34440
H          5.78730        8.91990      -14.25670
H          5.26570       10.43430      -16.89590
H          6.75400        9.44370      -16.45860
