162
630_105_01010101.out	Energy:   -4861.2769176
C          3.66860        0.44140        1.29810
C          2.70150        0.69630        0.38480
C          2.03200        1.93210        0.74660
C          2.69760        2.39930        1.97810
C          3.67080        1.49640        2.29220
C          2.38340        3.56510        2.70180
N          2.13820        4.51560        3.30770
C          0.99680        2.54650        0.09090
C          0.34060        3.76810        0.44680
C         -0.65530        4.03980       -0.47100
C         -0.65220        2.96270       -1.46080
C          0.32240        2.07300       -1.14120
C          0.63030        0.90200       -1.86410
N          0.85720       -0.04860       -2.47540
C         -1.51720        5.16660       -0.44640
C         -2.50540        5.41320       -1.35850
C         -3.35960        6.54280       -1.33260
C         -4.37030        6.81520       -2.24390
C         -4.99910        8.03960       -1.89820
C         -4.30630        8.52740       -0.68260
C         -3.33870        7.63060       -0.35740
C         -4.59860        9.71140        0.02470
N         -4.81860       10.67100        0.62420
C         -6.04360        8.67310       -2.55100
C         -6.65060        9.91130       -2.22140
C         -7.65890       10.18900       -3.13790
C         -7.70480        9.08390       -4.08960
C         -6.74860        8.17680       -3.75620
C         -6.48240        6.97400       -4.44030
N         -6.28320        5.99540       -5.01680
C         -8.49210       11.33200       -3.17020
C         -8.45320       12.42340       -2.30730
C         -9.44040       13.36070       -2.69210
C        -10.12710       12.77870       -3.86960
C         -9.55170       11.57730       -4.14230
C        -11.18970       13.36390       -4.58620
N        -12.05930       13.82330       -5.18830
C         -9.71560       14.59290       -2.11410
C        -10.68640       15.54080       -2.51020
C        -10.60840       16.65880       -1.68000
C         -9.54860       16.40890       -0.70740
C         -9.01230       15.18440       -0.95130
C         -7.96580       14.58870       -0.21770
N         -7.10940       14.12700        0.40040
C        -11.40600       17.81540       -1.78110
C        -11.27410       18.92470       -0.97870
C        -12.05510       20.09160       -1.08380
C        -11.90190       21.23990       -0.30560
C        -12.85300       22.20510       -0.70070
C        -13.64000       21.58600       -1.79360
C        -13.15380       20.33580       -2.01300
C        -14.70360       22.18780       -2.49640
N        -15.57490       22.65690       -3.08770
C        -13.02710       23.48750       -0.19260
C        -13.98660       24.45020       -0.57470
C        -13.80030       25.61150        0.17570
C        -12.67490       25.37760        1.07320
C        -12.20760       24.11710        0.87060
C        -11.12710       23.52320        1.55230
N        -10.23990       23.05980        2.12480
C        -14.54930       26.80520        0.10190
C        -15.65890       27.05660       -0.70560
C        -16.11770       28.37150       -0.47380
C        -15.21000       28.95510        0.54280
C        -14.28940       28.01240        0.87780
C        -15.28450       30.25650        1.07760
N        -15.32380       31.31630        1.53030
C        -17.20850       29.01040       -1.05260
C        -17.66570       30.32550       -0.81970
C        -18.81080       30.56050       -1.58230
C        -19.09070       29.34360       -2.33810
C        -18.14400       28.41610       -2.03690
C        -18.07490       27.11240       -2.56900
N        -18.04380       26.05090       -3.01710
C        -19.55190       31.75750       -1.59810
C        -20.70840       31.95230       -2.31700
C        -21.45750       33.14470       -2.32230
C        -22.65560       33.34650       -3.00770
C        -23.11710       34.66080       -2.77050
C        -22.11520       35.29530       -1.88160
C        -21.14040       34.38500       -1.62050
C        -22.16120       36.61320       -1.38270
N        -22.17410       37.68520       -0.95960
C        -24.27670       35.25550       -3.25080
C        -24.73650       36.57350       -3.02320
C        -25.95270       36.75640       -3.67610
C        -26.28350       35.50510       -4.34880
C        -25.29410       34.60380       -4.10950
C        -25.25400       33.28090       -4.59240
N        -25.24410       32.20240       -5.00030
C        -26.74440       37.92810       -3.70060
C        -26.45410       39.15490       -3.11200
C        -27.50860       40.06370       -3.37650
C        -28.50590       39.31660       -4.17870
C        -28.03660       38.05450       -4.36600
C        -29.72860       39.81810       -4.66740
N        -30.73490       40.20490       -5.07700
C        -27.60830       41.39010       -2.98710
C        -28.66760       42.29280       -3.25750
C        -28.36960       43.53000       -2.70130
C        -27.06900       43.41770       -2.04640
C        -26.60440       42.15090       -2.20550
C        -25.37980       41.65230       -1.71730
N        -24.37240       41.26810       -1.30950
C        -29.13210       44.72310       -2.73020
C        -30.36010       44.84060       -3.32310
C        -31.11980       46.03860       -3.36060
C        -30.79820       47.28650       -2.86150
C        -31.86780       48.19680       -3.13580
C        -32.89850       47.40800       -3.85230
C        -32.44150       46.13590       -3.97890
C        -34.13820       47.88740       -4.32270
N        -35.15850       48.25080       -4.71720
C        -31.93120       49.52760       -2.81120
C        -33.00980       50.45750       -3.08850
C        -32.67040       51.67570       -2.60310
C        -31.35960       51.59240       -1.99030
C        -30.90060       50.31260       -2.10480
C        -29.66520       49.82940       -1.63390
N        -28.64920       49.44830       -1.24250
H          4.34340       -0.40120        1.31090
H          2.45150        0.09870       -0.47600
H          4.34050        1.54390        3.13730
H          0.59060        4.37650        1.30070
H         -1.32000        2.89670       -2.30600
H         -1.35710        5.86690        0.36850
H         -2.66860        4.71080       -2.17100
H         -4.63310        6.19630       -3.08620
H         -2.66190        7.70140        0.47990
H         -6.36840       10.53740       -1.39110
H         -8.38970        9.01350       -4.92040
H         -7.77360       12.54270       -1.47970
H         -9.82460       10.90480       -4.94070
H        -11.37510       15.42560       -3.33120
H         -9.25020       17.08890        0.07540
H        -12.16180       17.81360       -2.56150
H        -10.50930       18.92880       -0.20710
H        -11.16770       21.36540        0.47320
H        -13.51480       19.63230       -2.74700
H        -14.74250       24.30900       -1.32950
H        -12.29010       26.09550        1.78070
H        -16.10080       26.35620       -1.39500
H        -13.49020       28.12600        1.59360
H        -17.20910       31.03910       -0.15360
H        -19.91340       29.21320       -3.02380
H        -19.17120       32.56680       -0.98130
H        -21.09720       31.13800       -2.92220
H        -23.15020       32.60980       -3.61930
H        -20.27080       34.54400       -1.00200
H        -24.22460       37.31640       -2.43400
H        -27.17010       35.33770       -4.94020
H        -25.56580       39.38450       -2.54680
H        -28.53000       37.26450       -4.91070
H        -29.55810       42.04700       -3.81170
H        -26.57840       44.22590       -1.52580
H        -28.69400       45.58930       -2.24250
H        -30.80370       43.97250       -3.80210
H        -29.88920       47.55280       -2.34790
H        -32.95150       45.31090       -4.45280
H        -33.92190       50.19610       -3.59890
H        -33.25850       52.57980       -2.64960
H        -30.84480       52.41850       -1.52390
