122
630_5_01010101.out	Energy:   -6601.7152759
C          3.41320        0.15330       -0.18810
C          2.19380        0.27900        0.38920
C          1.73200        1.64390        0.21370
C          2.80360        2.33220       -0.52870
C          3.79810        1.42540       -0.75990
C          2.80660        3.68150       -0.92890
N          2.82920        4.78420       -1.26770
C          0.54740        2.18680        0.63410
C          0.08300        3.52970        0.44050
C         -1.16850        3.66240        0.99170
C         -1.54140        2.37240        1.57320
C         -0.53290        1.48640        1.37310
C         -0.52290        0.14330        1.79820
N         -0.54640       -0.95020        2.16380
C         -2.03580        4.80120        1.02740
C         -1.67040        6.01110        0.55300
N         -2.43250        7.16360        0.51490
C         -3.78470        7.33730        0.82980
S         -4.85300        6.22090        1.38560
C         -4.08050        8.71220        0.55910
C         -2.96210        9.35630        0.10430
C         -1.87950        8.37120        0.06870
S         -0.32190        8.54740       -0.39440
C         -2.88040       10.73610       -0.28120
C         -3.95790       11.58180       -0.43580
C         -3.49290       12.87280       -0.84590
C         -2.02270       12.76850       -0.91240
C         -1.67330       11.49420       -0.58220
C         -1.13460       13.80560       -1.26020
N         -0.39620       14.64480       -1.54330
C         -4.25630       13.97560       -1.15750
C         -3.80930       15.25200       -1.61220
C         -4.90240       16.04820       -1.87820
C         -6.10620       15.27340       -1.57580
C         -5.74010       14.04330       -1.13490
C         -6.61820       13.01900       -0.72980
N         -7.35930       12.19960       -0.39880
C         -4.95990       17.37980       -2.39050
C         -3.87270       18.17520       -2.50760
N         -3.83070       19.45490       -3.02210
C         -2.69680       20.26740       -2.81300
S         -1.37200       19.82830       -1.95630
C         -2.96030       21.49900       -3.48510
C         -4.18180       21.43830       -4.09950
C         -4.76450       20.12150       -3.80810
S         -6.21220       19.53400       -4.29810
C         -4.77490       22.47260       -4.89930
C         -4.38490       23.79460       -4.91530
C         -5.18690       24.51330       -5.86100
C         -6.10600       23.51970       -6.44720
C         -5.85980       22.31680       -5.85850
C         -7.08120       23.76530       -7.43430
N         -7.88560       23.94290       -8.24110
C         -5.13220       25.85490       -6.16500
C         -5.89550       26.56160       -7.13990
C         -5.55480       27.89650       -7.11110
C         -4.53070       28.07520       -6.07910
C         -4.26110       26.86930       -5.51720
C         -3.32960       26.62830       -4.48800
N         -2.55960       26.45350       -3.64750
C         -6.10280       28.90850       -7.95320
C         -5.84150       30.22700       -7.80720
N         -6.33810       31.25470       -8.58360
C         -6.98600       31.18220       -9.82450
S         -7.29930       29.84750      -10.72650
C         -7.29420       32.53160      -10.18630
C         -6.85070       33.39580       -9.22100
C         -6.21430       32.58950       -8.17770
S         -5.47980       33.05220       -6.79220
C         -7.00520       34.82180       -9.23550
C         -7.55170       35.54810      -10.27240
C         -7.57780       36.93560       -9.91880
C         -6.99490       37.01660       -8.56580
C         -6.65500       35.75730       -8.17470
C         -6.81790       38.19260       -7.80980
N         -6.66910       39.14540       -7.17780
C         -8.05790       37.98010      -10.67620
C         -8.13250       39.36120      -10.32640
C         -8.69380       40.06820      -11.36740
C         -8.99190       39.12000      -12.44350
C         -8.62180       37.87630      -12.04650
C         -8.74620       36.70070      -12.81360
N         -8.86160       35.75340      -13.46130
C         -8.94660       41.47290      -11.38600
C         -9.48760       42.10750      -12.44950
N         -9.77690       43.45260      -12.56670
C        -10.30880       43.96280      -13.76270
S        -10.63410       43.09120      -15.10580
C        -10.49570       45.37940      -13.54720
C        -10.09760       45.68370      -12.29690
C         -9.63200       44.48050      -11.63460
S         -9.06740       44.39290      -10.10100
H          4.02180       -0.73740       -0.23100
H          1.63720       -0.49080        0.89760
H          4.72480        1.61090       -1.28170
H          0.64160        4.29420       -0.07380
H         -2.47620        2.18290        2.07910
H         -3.02000        4.64980        1.45540
H         -0.67310        6.17790        0.14920
H         -5.06220        9.12980        0.71640
H         -4.99380       11.31960       -0.29860
H         -0.67430       11.08910       -0.53960
H         -2.77530       15.52260       -1.74850
H         -7.11250       15.64810       -1.68620
H         -5.93680       17.74110       -2.69040
H         -2.89930       17.85880       -2.13480
H         -2.25840       22.31740       -3.50130
H         -3.61230       24.23490       -4.30660
H         -6.36470       21.38550       -6.06100
H         -6.62390       26.11480       -7.79640
H         -4.06520       29.01470       -5.82300
H         -6.76850       28.56880       -8.73920
H         -5.22390       30.59840       -6.99120
H         -7.80570       32.77660      -11.10350
H         -7.90960       35.14890      -11.20670
H         -6.20350       35.47240       -7.23720
H         -7.80550       39.77790       -9.38790
H         -9.43490       39.37570      -13.39390
H         -8.68320       42.02510      -10.49080
H         -9.74810       41.56780      -13.35860
H        -10.89430       46.03560      -14.30440
H        -10.10030       46.64430      -11.80670
