142
630_310_01010101.out	Energy:   -3883.3111341
C          5.47880       28.80960       10.82660
C          6.76250       28.42140       10.92610
C          7.05020       27.50890        9.81240
C          5.78950       27.41210        9.05420
C          4.88000       28.18650        9.66960
C          5.51230       26.66720        7.88470
N          5.27620       26.05630        6.92580
C          8.23650       26.90980        9.57310
C          8.52770       25.99580        8.46800
C          9.82240       25.62760        8.53950
C         10.40530       26.24860        9.71690
C          9.49020       27.01440       10.33170
C          9.76820       27.75160       11.50000
N         10.01280       28.35390       12.46670
C         10.42760       24.69860        7.62290
C         11.73460       24.69690        7.31780
C         12.34330       23.75430        6.37520
C         11.64930       23.23390        5.28130
C         12.28320       22.36300        4.39450
C         13.61170       22.04060        4.65010
N         14.32830       22.53420        5.68350
C         13.67790       23.38110        6.51430
C         11.51210       21.81050        3.28510
C         12.04390       21.45560        2.10660
C         11.26130       20.93480        1.02030
C          9.98310       21.28260        0.76760
C          9.53990       20.59080       -0.43650
C         10.69550       19.80580       -0.88950
C         11.70330       20.03730       -0.03240
C         10.80150       18.93550       -1.99670
N         10.89580       18.21440       -2.90110
C          8.31010       20.70210       -0.97300
C          7.85330       20.02640       -2.18040
C          6.57350       20.37730       -2.40250
C          6.15710       21.29350       -1.35560
C          7.16890       21.49660       -0.50150
C          7.06210       22.34250        0.62510
N          6.95730       23.03980        1.54550
C          5.81250       19.87760       -3.50770
C          4.53240       20.20320       -3.72260
C          3.77340       19.66920       -4.84410
C          2.75430       20.44140       -5.38880
C          2.02030       19.95660       -6.46930
C          2.31670       18.67570       -6.92810
N          3.27900       17.88400       -6.40830
C          3.98070       18.40050       -5.37800
C          0.93680       20.72690       -7.07090
C          0.93420       22.06690       -7.12480
C         -0.13370       22.83630       -7.69760
C         -0.12900       24.18430       -7.73890
C         -1.36370       24.63160       -8.38150
C         -2.10550       23.40670       -8.71600
C         -1.36400       22.36440       -8.30750
C         -3.36090       23.25910       -9.34150
N         -4.39110       23.12050       -9.85600
C         -1.70010       25.91810       -8.60470
C         -2.92350       26.36130       -9.26200
C         -2.90530       27.70410       -9.31810
C         -1.68520       28.18470       -8.69970
C         -0.95790       27.14210       -8.26980
C          0.28890       27.28680       -7.62230
N          1.31150       27.41460       -7.08900
C         -3.95360       28.47220       -9.91300
C         -4.65250       29.38420       -9.22580
C         -5.71310       30.18250       -9.83510
C         -5.97420       31.45830       -9.33820
C         -6.98410       32.22660       -9.91330
C         -7.70670       31.68050      -10.96830
N         -7.49570       30.44380      -11.46690
C         -6.51270       29.72380      -10.88250
C         -7.27420       33.55560       -9.40130
C         -6.66570       34.65570       -9.86820
C         -6.94420       35.97320       -9.36100
C         -7.30080       36.24150       -8.08630
C         -7.44790       37.68430       -7.93560
C         -7.11760       38.25460       -9.25120
C         -6.80690       37.23470      -10.06770
C         -7.11310       39.60590       -9.66520
N         -7.11060       40.71350      -10.01260
C         -7.79950       38.30820       -6.79410
C         -7.91930       39.75100       -6.64420
C         -8.23260       40.03420       -5.36510
C         -8.38560       38.77380       -4.65310
C         -8.12490       37.74480       -5.47690
C         -8.18160       36.38980       -5.07320
N         -8.22850       35.27780       -4.73730
C         -8.45950       41.36450       -4.85750
C         -7.83140       42.45040       -5.33550
C         -8.06190       43.79230       -4.81560
C         -9.05180       44.60760       -5.37000
C         -9.23270       45.90790       -4.89130
C         -8.41630       46.31240       -3.83520
N         -7.44640       45.55250       -3.27330
C         -7.28800       44.31190       -3.78320
C        -10.27640       46.76560       -5.46320
C        -10.19200       48.10130       -5.51960
H          4.99730       29.45200       11.47510
H          7.42900       28.71380       11.65760
H          3.90330       28.31610        9.36250
H          7.85290       25.68430        7.75200
H         11.37900       26.11980       10.03360
H          9.82220       23.99330        7.17450
H         12.34310       25.39640        7.77100
H         10.66260       23.49460        5.12790
H         14.08040       21.38180        4.00880
H         14.20750       23.77810        7.30600
H         10.49600       21.68550        3.41580
H         13.06190       21.56130        1.97390
H          9.41310       21.93100        1.33310
H         12.65120       19.63680       -0.11020
H          8.41520       19.38800       -2.76500
H          5.22200       21.72370       -1.28080
H          6.27370       19.23530       -4.17080
H          4.06750       20.85470       -3.07110
H          2.54190       21.37100       -4.99410
H          1.76420       18.30700       -7.71790
H          4.72030       17.81610       -4.95790
H          0.13520       20.21680       -7.47360
H          1.74410       22.57250       -6.73310
H          0.61940       24.79640       -7.37800
H         -1.62980       21.37260       -8.41180
H         -3.67330       25.75030       -9.62170
H         -1.41700       29.17670       -8.60480
H         -4.17990       28.31830      -10.90800
H         -4.43360       29.52860       -8.22760
H         -5.42300       31.83140       -8.54940
H         -8.44930       32.25530      -11.39620
H         -6.34170       28.76900      -11.23500
H         -7.97470       33.65640       -8.65020
H         -5.96890       34.55320      -10.62250
H         -7.44520       35.54120       -7.34210
H         -6.51360       37.33290      -11.05230
H         -7.78590       40.44490       -7.39640
H         -8.65500       38.68370       -3.66090
H         -9.13770       41.48790       -4.08940
H         -7.15510       42.32960       -6.10560
H         -9.64860       44.24990       -6.13220
H         -8.56200       47.26030       -3.45410
H         -6.54860       43.71360       -3.38290
H        -11.12310       46.31460       -5.84350
H         -9.35790       48.58180       -5.14760
H        -10.96120       48.64980       -5.93490
