166
630_242_01010101.out	Energy:   -6021.3214070
C          0.28060       -0.11510      -11.81440
C          0.29240       -0.14750      -10.46020
C          0.06690        1.19620       -9.95840
C         -0.08000        2.04610      -11.15450
C          0.05160        1.24520      -12.25230
C         -0.30330        3.43570      -11.16960
N         -0.47730        4.57550      -11.20760
C          0.00430        1.60120       -8.65230
C         -0.22530        2.92690       -8.15430
C         -0.19250        2.91290       -6.78070
C          0.06120        1.53580       -6.35320
C          0.17650        0.74660       -7.45180
C          0.42430       -0.64060       -7.43930
N          0.62910       -1.77450       -7.39210
C         -0.36080        4.04850       -5.92880
C         -0.25590        4.02190       -4.57920
C         -0.37960        5.16240       -3.69500
C         -0.77280        6.43130       -4.15040
C         -0.84300        7.53840       -3.30750
C         -0.51760        7.35160       -1.95470
C         -0.14500        6.08120       -1.46990
C         -0.07570        4.99770       -2.33670
C          0.12090        6.10770       -0.04710
C         -0.07080        7.39140        0.49320
S         -0.56830        8.55740       -0.70560
C          0.12790        7.64210        1.84480
C          0.52140        6.59350        2.66060
C          0.71410        5.31480        2.13750
C          0.51660        5.06440        0.79080
C         -1.23380        8.83010       -3.85350
C         -2.09840        9.04440       -4.89400
C         -2.16690       10.45290       -5.17140
C         -1.25680       11.09750       -4.20390
C         -0.72010       10.12110       -3.41870
C         -0.98900       12.47580       -4.09980
N         -0.74900       13.59950       -3.99780
C         -2.89740       11.07900       -6.15240
C         -2.87280       12.46310       -6.51100
C         -3.69710       12.66770       -7.59460
C         -4.31330       11.38580       -7.93510
C         -3.84020       10.42930       -7.09470
C         -4.19820        9.06680       -7.10740
N         -4.50840        7.95630       -7.13460
C         -3.90900       13.85880       -8.35770
C         -3.22230       15.01060       -8.16310
C         -3.29140       16.19350       -8.99310
C         -4.27670       16.37460       -9.98060
C         -4.24780       17.45420      -10.85560
C         -3.21480       18.39150      -10.71660
C         -2.25080       18.26140       -9.69760
C         -2.29250       17.16580       -8.84490
C         -1.30530       19.35720       -9.71620
C         -1.59270       20.27350      -10.74370
S         -2.99500       19.82010      -11.67900
C         -0.80950       21.40340      -10.94060
C          0.27010       21.61490      -10.09810
C          0.56530       20.71410       -9.07470
C         -0.21420       19.58780       -8.87760
C         -5.25370       17.59070      -11.90490
C         -6.60680       17.44780      -11.78820
C         -7.21410       17.65640      -13.07900
C         -6.09660       17.89630      -14.01520
C         -4.94030       17.89010      -13.29500
C         -6.19990       18.13470      -15.39920
N         -6.25470       18.33220      -16.53420
C         -8.55030       17.71240      -13.38360
C         -9.14750       17.86890      -14.67760
C        -10.50570       18.01120      -14.53760
C        -10.82240       17.93650      -13.11270
C         -9.67450       17.71890      -12.41760
C         -9.56910       17.57040      -11.02080
N         -9.50900       17.44450       -9.87600
C        -11.44970       18.19380      -15.60250
C        -12.67450       18.74230      -15.46330
C        -13.58890       18.93700      -16.58140
C        -14.37660       20.09350      -16.64220
C        -15.21110       20.37360      -17.72780
C        -15.30040       19.39730      -18.73850
C        -14.54600       18.20790      -18.66870
C        -13.67150       17.99480      -17.60990
C        -14.81470       17.33000      -19.78720
C        -15.76800       17.88060      -20.66070
S        -16.32350       19.44900      -20.14050
C        -16.17940       17.20200      -21.80070
C        -15.62930       15.95780      -22.06270
C        -14.68260       15.39910      -21.20330
C        -14.27120       16.07560      -20.06840
C        -15.89330       21.65210      -17.81580
C        -16.35860       22.27510      -18.94630
C        -16.85150       23.57870      -18.60750
C        -16.69480       23.70040      -17.14550
C        -16.12310       22.55090      -16.68930
C        -17.08610       24.80040      -16.35830
N        -17.40440       25.69040      -15.69720
C        -17.30960       24.54430      -19.47310
C        -17.65460       25.90000      -19.18020
C        -17.98430       26.55190      -20.34880
C        -17.88610       25.58490      -21.44100
C        -17.48200       24.38950      -20.93670
C        -17.29000       23.21130      -21.68520
N        -17.15420       22.26100      -22.32460
C        -18.31940       27.93410      -20.47910
C        -18.61140       28.53940      -21.65650
C        -18.90970       29.94040      -21.85270
C        -19.26270       30.37350      -23.14940
C        -19.54500       31.69580      -23.42220
C        -19.47210       32.62460      -22.38790
C        -19.12000       32.22200      -21.08260
C        -18.84450       30.88560      -20.82150
C        -19.09480       33.34530      -20.17000
C        -19.42840       34.54840      -20.81860
S        -19.77250       34.33010      -22.51570
C        -19.46090       35.75300      -20.12780
C        -19.15590       35.74980      -18.77600
C        -18.82390       34.56370      -18.12130
C        -18.79140       33.36260      -18.80810
H          0.41750       -0.95050      -12.48460
H          0.43860       -1.01320       -9.83570
H         -0.00270        1.55910      -13.28380
H         -0.39280        3.79360       -8.77260
H          0.13870        1.20970       -5.32710
H         -0.56590        4.98270       -6.44360
H         -0.02940        3.08080       -4.08480
H         -1.01240        6.57240       -5.19760
H          0.22240        4.02310       -1.96580
H         -0.02240        8.63520        2.25070
H          0.68110        6.76960        3.71830
H          1.02200        4.50970        2.79500
H          0.66790        4.06860        0.38970
H         -2.65560        8.29060       -5.42500
H         -0.00490       10.26300       -2.62330
H         -2.27180       13.20730       -6.01510
H         -5.02110       11.24600       -8.73830
H         -4.62710       13.77920       -9.16850
H         -2.48770       15.05240       -7.36300
H         -5.07040       15.64480      -10.09160
H         -1.53760       17.04690       -8.07560
H         -1.03910       22.10360      -11.73480
H          0.89250       22.49170      -10.23630
H          1.41500       20.90050       -8.42780
H          0.01880       18.89090       -8.08050
H         -7.14990       17.23280      -10.88270
H         -3.94320       18.04860      -13.67630
H         -8.60390       17.88020      -15.60790
H        -11.81640       18.01230      -12.69840
H        -11.09870       17.91630      -16.59310
H        -12.99570       19.12790      -14.49990
H        -14.28210       20.82190      -15.84490
H        -13.08510       17.08450      -17.56250
H        -16.91390       17.63660      -22.46780
H        -15.93830       15.41140      -22.94660
H        -14.26610       14.42410      -21.42910
H        -13.53520       15.63670      -19.40410
H        -16.30600       21.89750      -19.95300
H        -15.89770       22.32420      -15.65840
H        -17.62520       26.34310      -18.19800
H        -18.10070       25.79400      -22.47780
H        -18.31450       28.50500      -19.55490
H        -18.62660       27.93980      -22.56300
H        -19.31320       29.64340      -23.95000
H        -19.81490       32.00740      -24.42420
H        -18.56980       30.58510      -19.81700
H        -19.71830       36.67450      -20.63600
H        -19.17550       36.68110      -18.22130
H        -18.58860       34.58540      -17.06330
H        -18.53230       32.44350      -18.29480
