146
630_724_01010101.out	Energy:   -5175.7804976
C         -4.96230       -2.87480       -8.79970
C         -5.33620       -2.48750       -7.56680
C         -5.88220       -1.12690       -7.66220
C         -5.77960       -0.76680       -9.08900
C         -5.23480       -1.81100       -9.73730
C         -6.15180        0.43620       -9.73120
N         -6.45480        1.42050      -10.26810
C         -6.36580       -0.39470       -6.63470
C         -6.92250        0.95650       -6.73470
C         -7.27800        1.36950       -5.50330
C         -6.98630        0.30200       -4.56120
C         -6.45160       -0.74620       -5.20930
C         -6.06690       -1.94250       -4.56290
N         -5.75330       -2.92090       -4.02350
C         -7.85600        2.65710       -5.23240
C         -7.31470        3.52150       -4.36240
C         -7.96500        4.82220       -4.10930
S         -9.16370        4.62670       -2.60560
C         -8.62730        6.33350       -2.66970
C         -7.23420        5.78980       -3.15050
N         -6.62120        7.04160       -3.60920
C         -6.96140        7.95600       -2.46830
C         -8.02320        7.20310       -1.59970
C         -9.03280        8.07670       -0.93220
C         -9.08950        8.33650        0.39030
C        -10.25700        9.18410        0.64660
C        -10.89170        9.38260       -0.66550
C        -10.14940        8.73880       -1.58180
C        -12.06060       10.10910       -0.99150
N        -13.01630       10.70170       -1.27470
C        -10.63040        9.66780        1.85010
C        -11.80630       10.49990        2.09890
C        -11.82200       10.84070        3.40010
C        -10.68250       10.21980        4.05310
C         -9.97270        9.51500        3.15640
C         -8.80410        8.79280        3.48670
N         -7.84240        8.20430        3.76280
C        -12.83110       11.67990        3.97850
C        -12.52930       12.80610        4.63790
C        -13.60700       13.62580        5.21730
S        -13.84500       13.10490        7.06160
C        -14.35700       14.81130        6.89090
C        -13.19070       14.97050        5.85180
N        -13.55340       16.26420        5.26260
C        -13.85950       17.05840        6.49850
C        -13.95050       16.02950        7.67340
C        -14.93470       16.37050        8.74060
C        -14.62240       16.76280        9.99220
C        -15.86620       16.93990       10.74400
C        -16.94500       16.58280        9.80950
C        -16.37880       16.27220        8.63140
C        -18.34200       16.55710       10.02480
N        -19.49110       16.52970       10.18550
C        -15.95710       17.35890       12.02320
C        -17.20120       17.50850       12.77470
C        -16.90940       18.00290       13.99100
C        -15.46850       18.16390       14.08930
C        -14.88780       17.78000       12.94050
C        -13.49040       17.82730       12.72000
N        -12.34660       17.87140       12.54260
C        -17.91070       18.28930       14.97790
C        -18.03730       19.49810       15.53940
C        -19.08960       19.72760       16.54360
S        -18.47340       21.08370       17.77550
C        -20.26250       21.12750       17.73260
C        -20.15790       20.79030       16.20610
N        -21.55680       20.44040       15.93730
C        -22.26850       21.56350       16.63400
C        -21.19930       22.28670       17.52420
C        -21.72310       22.83930       18.81010
C        -22.54100       23.90420       18.94660
C        -22.75810       24.14030       20.37930
C        -21.97150       23.10760       21.06860
C        -21.38010       22.34960       20.13320
C        -21.80460       22.88090       22.45330
N        -21.65750       22.68050       23.58660
C        -23.52610       25.11190       20.91570
C        -23.72260       25.34660       22.34520
C        -24.56270       26.38800       22.50280
C        -24.93800       26.87000       21.18440
C        -24.33380       26.13640       20.23730
C        -24.49310       26.37220       18.85660
N        -24.62720       26.56800       17.71820
C        -24.95740       26.88330       23.79470
C        -25.80230       27.90880       23.97470
C        -26.16440       28.33770       25.34220
S        -27.38480       29.83520       25.23450
C        -27.70960       28.97190       26.76770
C        -27.38500       27.64750       25.99230
N        -27.25890       26.72520       27.12390
C        -28.48840       27.08340       27.89890
C        -28.99530       28.44010       27.32730
H         -4.54610       -3.78870       -9.03790
H         -5.25380       -3.04830       -6.70440
H         -5.04100       -1.84680      -10.75040
H         -7.02520        1.50170       -7.60490
H         -7.16350        0.34310       -3.54540
H         -8.72090        2.92660       -5.72670
H         -6.44190        3.27710       -3.86880
H         -8.20430        5.11310       -5.11080
H         -9.44040        6.92730       -3.03210
H         -6.43970        5.30610       -2.62160
H         -7.03480        7.36340       -4.48430
H         -7.36930        8.87340       -2.83830
H         -6.09220        8.19900       -1.89370
H         -7.61000        6.69710       -0.75230
H         -8.42340        7.99590        1.10120
H        -10.34380        8.71810       -2.59510
H        -12.50690       10.77910        1.39440
H        -10.45280       10.30700        5.05540
H        -13.82190       11.40720        3.88350
H        -11.54480       13.09850        4.73950
H        -14.32370       13.58950        4.42370
H        -15.42580       14.84580        6.92880
H        -12.13100       15.04670        5.97860
H        -14.36910       16.18490        4.65540
H        -14.79000       17.57450        6.38570
H        -13.10450       17.79340        6.68420
H        -13.05060       15.95070        8.24680
H        -13.66910       16.91260       10.35790
H        -16.89300       16.00420        7.77770
H        -18.14540       17.27430       12.43000
H        -14.96650       18.51990       14.91780
H        -18.55610       17.53700       15.26510
H        -17.40100       20.26470       15.26990
H        -19.36930       18.71750       16.75910
H        -20.63060       20.68730       18.63570
H        -19.88270       21.38590       15.36080
H        -21.80090       19.53520       16.33900
H        -23.05790       21.17800       17.24480
H        -22.70550       22.23990       15.92940
H        -20.78030       23.16720       17.08370
H        -22.94500       24.45820       18.17530
H        -20.77160       21.53870       20.32550
H        -23.28890       24.80380       23.10830
H        -25.57590       27.66070       21.00310
H        -24.56740       26.42230       24.63170
H        -26.19990       28.39900       23.15820
H        -25.19880       28.30700       25.80230
H        -27.32380       29.56170       27.57270
H        -27.95060       27.08810       25.27680
H        -26.40980       26.90070       27.66110
H        -28.25340       27.18530       28.93780
H        -29.23620       26.32340       27.80890
H        -29.38860       29.07390       28.09440
H        -29.79970       28.36550       26.62580
