162
630_40_01010101.out	Energy:   -6017.3402325
C          6.84700       -0.61700      -14.72560
C          5.73300        0.06200      -14.35020
C          6.12350        1.15590      -13.48760
C          7.58880        1.07170      -13.37310
C          8.00340        0.00410      -14.12040
C          8.41520        1.92760      -12.62240
N          9.10510        2.61930      -12.00820
C          5.30800        2.09120      -12.89120
C          5.69990        3.17690      -12.05840
C          4.57490        3.88490      -11.65920
C          3.41150        3.23280      -12.25350
C          3.83190        2.16940      -12.98820
C          2.99330        1.29520      -13.70960
N          2.27830        0.60020      -14.28850
C          4.58680        5.02450      -10.82560
C          3.46980        5.73520      -10.45560
C          3.41340        6.87760       -9.64020
S          1.93150        7.76950       -9.63430
C          2.55760        9.03190       -8.63050
C          3.89280        8.73490       -8.23890
C          4.37360        7.50920       -8.79940
C          5.64540        7.03740       -8.43610
C          6.44670        7.77030       -7.57890
C          7.80790        7.32780       -7.15010
O          8.43060        7.95340       -6.32880
C          8.37240        6.07880       -7.78500
C          5.96990        8.98810       -7.04830
C          4.71820        9.45700       -7.35680
C          1.74300       10.13760       -8.34600
C          2.07350       11.36780       -7.75620
C          0.93270       12.17870       -7.69590
C         -0.17440       11.39460       -8.27860
C          0.32500       10.19030       -8.67350
C         -1.51100       11.81770       -8.41470
N         -2.60860       12.14910       -8.53950
C          0.84530       13.48910       -7.20120
C         -0.28660       14.30680       -7.12340
C          0.07940       15.55580       -6.58290
C          1.50740       15.50670       -6.31320
C          1.97730       14.27880       -6.66690
C          3.31080       13.84300       -6.53890
N          4.40710       13.50300       -6.42280
C         -0.71840       16.67140       -6.32320
C         -2.09410       16.73530       -6.50090
C         -2.84740       17.86860       -6.22560
S         -2.12690       19.35010       -5.69200
C         -3.65010       20.17400       -5.55610
C         -4.72110       19.30870       -5.93470
C         -4.26610       18.01230       -6.31430
C         -5.18040       17.03530       -6.71450
C         -6.53860       17.32260       -6.75250
C         -7.45550       16.22660       -7.18690
O         -7.02490       15.13620       -7.46910
C         -8.93200       16.53490       -7.25660
C         -6.98300       18.60800       -6.38970
C         -6.09790       19.58370       -5.99020
C         -3.65160       21.50010       -5.11980
C         -4.72930       22.35840       -4.82000
C         -4.23790       23.59870       -4.40900
C         -2.76460       23.51170       -4.46510
C         -2.43190       22.25740       -4.87810
C         -1.85230       24.53750       -4.14900
N         -1.08500       25.36030       -3.89420
C         -4.97800       24.72200       -3.99840
C         -4.48740       25.96150       -3.58610
C         -5.56740       26.79670       -3.23370
C         -6.78650       26.03340       -3.44130
C         -6.45320       24.79600       -3.90530
C         -7.35390       23.76800       -4.24370
N         -8.09740       22.93170       -4.52590
C         -5.53420       28.11260       -2.75980
C         -4.36900       28.85760       -2.65810
C         -4.20870       30.15720       -2.18120
S         -2.67370       30.91420       -2.45240
C         -3.14510       32.41460       -1.72940
C         -4.48110       32.32750       -1.24050
C         -5.07890       31.05160       -1.48470
C         -6.36430       30.79490       -0.99930
C         -7.08040       31.77440       -0.32480
C         -8.44280       31.40390        0.15690
O         -8.90550       30.31270       -0.07260
C         -9.21480       32.43910        0.93890
C         -6.49900       33.03990       -0.12210
C         -5.22470       33.31010       -0.56230
C         -2.22180       33.46960       -1.71200
C         -2.34110       34.77170       -1.20580
C         -1.14490       35.47500       -1.42580
C         -0.23160       34.54300       -2.11580
C         -0.88180       33.35770       -2.27580
C          1.08450       34.82110       -2.53510
N          2.16270       35.02620       -2.88930
C         -0.85860       36.79370       -1.06260
C          0.32540       37.51880       -1.29050
C          0.19410       38.80220       -0.75510
C         -1.13070       38.89490       -0.16120
C         -1.77240       37.70550       -0.34040
C         -3.07730       37.40340        0.09320
N         -4.14790       37.16890        0.45540
C          1.17720       39.81340       -0.79580
C          1.04860       41.06150       -0.24160
C          2.03900       42.06160       -0.29770
S          3.54070       41.82950       -1.12650
C          4.09350       43.39300       -0.73680
C          3.17800       44.10900        0.01330
C          1.98550       43.35170        0.27460
C          0.94980       43.92610        1.03230
C          1.08420       45.21140        1.51880
C          0.04000       45.89120        2.33420
O          0.19830       47.01830        2.73720
C         -1.22450       45.12070        2.64220
C          2.26880       45.95520        1.25040
C          3.29250       45.43040        0.51990
H          6.89220       -1.48260      -15.36930
H          4.71760       -0.15550      -14.63750
H          9.02150       -0.33180      -14.24620
H          6.71470        3.41300      -11.78270
H          2.38810        3.55100      -12.12510
H          5.56900        5.34880      -10.50100
H          2.51450        5.42700      -10.87300
H          5.98820        6.07930       -8.80140
H          8.38550        6.17520       -8.86950
H          7.76000        5.21800       -7.51870
H          9.38610        5.92290       -7.42140
H          6.61050        9.53920       -6.36890
H          4.36930       10.37270       -6.89980
H          3.05350       11.67260       -7.43690
H         -0.22360        9.38370       -9.13500
H         -1.28080       14.02970       -7.43340
H          2.07790       16.32020       -5.89180
H         -0.21910       17.55640       -5.93580
H         -2.62200       15.85620       -6.85690
H         -4.84510       16.04450       -7.00160
H         -9.30100       16.81810       -6.27170
H         -9.46420       15.65040       -7.60120
H         -9.11230       17.35850       -7.94600
H         -8.03960       18.84480       -6.42190
H         -6.48130       20.55940       -5.72540
H         -5.77230       22.10330       -4.86940
H         -1.43530       21.87060       -5.02510
H         -3.44620       26.23310       -3.53310
H         -7.78180       26.40850       -3.25870
H         -6.48740       28.55750       -2.49920
H         -3.45950       28.39920       -3.03860
H         -6.82720       29.82380       -1.11960
H         -8.65280       32.74020        1.82180
H        -10.17050       32.01690        1.24310
H         -9.38880       33.31900        0.32090
H         -7.04960       33.81520        0.39680
H         -4.80510       34.28750       -0.36970
H         -3.20500       35.19100       -0.72370
H         -0.49060       32.46670       -2.74220
H          1.20050       37.14730       -1.79840
H         -1.53350       39.76540        0.33360
H          2.10510       39.56830       -1.30670
H          0.13390       41.31980        0.28390
H          5.06240       43.72700       -1.06910
H          0.05380       43.34820        1.22740
H         -0.98650       44.21120        3.19220
H         -1.73290       44.84760        1.71840
H         -1.88160       45.74510        3.24450
H          2.33250       46.96130        1.65000
H          4.19170       46.00170        0.32030
