118
630_1135_01010101.out	Energy:   -3702.1337687
C         11.59060        7.91900        1.57310
C         12.01300        7.94340        0.28830
C         11.04290        8.67670       -0.50940
C          9.98620        9.09160        0.43600
C         10.33090        8.63160        1.67180
C          8.83050        9.83120        0.11970
N          7.87840       10.43650       -0.11860
C         11.09160        8.93600       -1.84970
C         10.13150        9.66450       -2.63890
C         10.55500        9.70920       -3.94250
C         11.82800        8.99140       -4.02780
C         12.15640        8.52620       -2.79530
C         13.31170        7.78210       -2.48010
N         14.26490        7.17490       -2.25270
C          9.86990       10.34280       -5.02770
C         10.30940       10.39470       -6.30440
C          9.55550       11.04570       -7.35430
N          8.38290       11.60880       -7.05370
C          7.72360       12.17740       -8.06070
N          8.17960       12.21260       -9.31840
C          9.35360       11.63880       -9.52630
N         10.07390       11.04390       -8.58720
C          6.43600       12.77720       -7.78210
C          5.58570       13.35710       -8.68040
C          4.39440       13.78410       -7.98490
C          4.60850       13.42990       -6.56420
C          5.82410       12.82920       -6.46000
C          3.71290       13.67690       -5.50430
N          2.99360       13.87060       -4.62440
C          3.27200       14.35130       -8.52720
C          2.05040       14.69600       -7.85240
C          1.14090       15.16170       -8.76880
C          1.78310       15.15450      -10.08500
C          3.04850       14.68030       -9.95520
C          3.98400       14.53620      -11.00030
N          4.72750       14.43000      -11.87460
C         -0.20750       15.54670       -8.48850
C         -1.12690       15.90480       -9.41260
C         -2.49260       16.22140       -9.05350
N         -3.34910       16.48920      -10.04000
C         -4.60910       16.73300       -9.68000
N         -5.02850       16.73770       -8.41030
C         -4.10830       16.48080       -7.49340
N         -2.84060       16.21220       -7.76070
C         -5.57760       16.99040      -10.72430
C         -6.92050       17.19170      -10.57470
C         -7.51100       17.37960      -11.87910
C         -6.39340       17.28760      -12.84440
C         -5.25210       17.05080      -12.14370
C         -6.49290       17.41620      -14.24430
N         -6.55170       17.51960      -15.39110
C         -8.83420       17.57240      -12.17500
C         -9.42750       17.73800      -13.47370
C        -10.78700       17.87030      -13.33910
C        -11.10760       17.79840      -11.91180
C         -9.95830       17.62700      -11.21010
C         -9.86030       17.51720       -9.80780
N         -9.81260       17.43120       -8.65930
C        -11.72240       18.04420      -14.40650
C        -13.06490       18.11740      -14.26590
C        -13.94880       18.29380      -15.39830
N        -13.41770       18.42030      -16.61650
C        -14.27420       18.59080      -17.62130
N        -15.60260       18.62920      -17.46240
C        -16.04390       18.49030      -16.22290
N        -15.26490       18.32530      -15.16400
C        -13.73880       18.75280      -18.95620
C        -14.44570       18.95940      -20.10690
C        -13.51860       19.09000      -21.20610
C        -12.17080       18.93380      -20.61670
C        -12.31770       18.73520      -19.27900
C        -10.94920       18.98310      -21.31790
N         -9.94040       19.01790      -21.87470
C        -13.81660       19.33060      -22.52150
C        -12.89690       19.49030      -23.61410
C        -13.60130       19.74280      -24.76530
C        -15.02650       19.74430      -24.42960
C        -15.17060       19.49910      -23.10270
C        -16.39460       19.41910      -22.40810
N        -17.41190       19.35680      -21.86940
C        -13.11230       19.98100      -26.08940
C        -11.81030       19.96290      -26.45450
C        -11.39070       20.22180      -27.81440
N        -12.31900       20.50280      -28.73650
C        -11.87590       20.73530      -29.95910
N        -10.59530       20.70300      -30.30950
C         -9.73680       20.41500      -29.33890
N        -10.08370       20.17000      -28.08670
H         12.08700        7.45370        2.41130
H         12.91310        7.50190       -0.10600
H          9.77130        8.76600        2.58500
H          9.22610       10.10230       -2.25140
H         12.40230        8.85820       -4.93180
H          8.92000       10.81540       -4.78790
H         11.24890        9.94740       -6.60890
H          9.75250       11.65350      -10.53670
H          5.76240       13.46290       -9.73830
H          6.29060       12.44340       -5.56640
H          1.87840       14.57720       -6.79520
H          1.31630       15.48120      -11.00160
H         -0.51030       15.51730       -7.44420
H         -0.89560       15.94480      -10.47120
H         -4.41680       16.48480       -6.45180
H         -7.45680       17.20100       -9.63990
H         -4.25500       16.92330      -12.53670
H         -8.88020       17.74820      -14.40200
H        -12.10120       17.87540      -11.49750
H        -11.30360       18.11510      -15.40790
H        -13.54810       18.04350      -13.29810
H        -17.11790       18.51560      -16.06180
H        -15.51870       19.02250      -20.18450
H        -11.53720       18.58680      -18.54860
H        -11.82550       19.42650      -23.51960
H        -15.81740       19.91480      -25.14430
H        -13.85780       20.19260      -26.85240
H        -11.01770       19.75240      -25.74510
H        -12.60670       20.96830      -30.72860
H         -8.68050       20.37840      -29.58980
