374
630_577_01010101.out	Energy:   -8803.9135610
C         -3.23910       11.85800      -37.29090
C         -2.32530       12.57850      -37.96220
C         -2.52350       14.00460      -37.63330
C         -3.64230       14.01390      -36.67360
C         -4.05540       12.74300      -36.49920
C         -4.24730       15.10700      -36.01440
N         -4.76660       15.97520      -35.45200
C         -1.79940       15.03740      -38.13320
C         -1.92360       16.47530      -37.80450
C         -0.99620       17.17380      -38.50450
C         -0.27750       16.21310      -39.34040
C         -0.72800       14.96570      -39.13570
C         -0.25200       13.84560      -39.85740
N          0.13620       12.93040      -40.45700
C         -0.80370       18.61580      -38.57790
C         -0.97130       19.53890      -37.60840
C         -0.61830       20.97380      -37.78010
C         -0.98070       21.67980      -38.98420
N         -1.99640       21.50750      -39.93300
C         -3.22400       20.74180      -39.74040
C         -4.13350       21.31290      -38.66140
C         -1.80740       22.34170      -41.03080
C         -0.78250       23.22780      -40.69080
C         -0.40190       24.24380      -41.60800
C         -1.05900       24.30360      -42.83410
C         -2.09620       23.41380      -43.15430
C         -2.49290       22.42250      -42.26510
C         -2.60260       23.73620      -44.47380
C         -1.86240       24.81900      -44.99460
C         -0.81090       25.25660      -43.99210
C         -2.13380       25.34170      -46.24990
C         -3.17380       24.77130      -46.98910
C         -3.91870       23.69800      -46.47210
C         -3.63380       23.17290      -45.20790
C         -0.33360       22.87070      -39.37370
C          0.61120       23.46770      -38.51350
C          0.80620       22.89990      -37.26020
C          0.18050       21.69670      -36.85750
C          0.49940       21.51840      -35.42530
C          1.35690       22.56860      -34.98890
C          1.68780       23.46760      -36.16140
C          1.71620       22.77180      -33.64270
C          1.13920       21.94110      -32.68720
C          0.27840       20.91340      -33.11020
C         -0.02570       20.66970      -34.46560
C         -0.33300       20.21240      -31.87400
C         -1.87040       20.38090      -32.01760
C         -2.37730       21.83440      -31.98080
C          0.18120       18.74830      -31.85200
C          1.71260       18.61280      -31.69570
C          0.27900       20.95830      -30.66400
C          1.19530       21.93090      -31.22200
C          2.04780       22.64220      -30.39930
C          1.97630       22.41840      -29.02630
C          1.06200       21.49280      -28.47720
C          0.19240       20.70290      -29.26270
C         -0.65100       19.69090      -28.50790
C         -0.24250       18.98500      -27.40860
C         -1.35860       18.15530      -26.87060
C         -2.53050       18.60890      -27.63750
C         -2.09370       19.43640      -28.61210
C         -3.90410       18.44930      -27.30290
N         -5.02350       18.36920      -27.00580
C         -1.28250       17.14820      -25.95120
C         -2.35070       16.18140      -25.60890
C         -1.85880       15.18230      -24.82410
C         -0.47060       15.52960      -24.54440
C         -0.12030       16.65790      -25.19660
C          1.18340       17.19820      -25.16790
N          2.26010       17.63080      -25.15400
C         -2.57720       13.93150      -24.52030
C         -2.56280       13.20570      -23.37990
C         -3.32400       11.93710      -23.11490
C         -4.69100       11.71080      -23.50950
N         -5.75570       12.54150      -23.86140
C         -6.05050       13.95400      -23.65640
C         -5.07970       15.08840      -23.55030
C         -6.88020       11.78290      -24.21560
C         -6.63540       10.44510      -23.92890
C         -7.74130        9.52990      -24.05920
C         -9.00510       10.02700      -24.45390
C         -9.17420       11.37710      -24.76610
C         -8.12810       12.25740      -24.67170
C        -10.53980       11.66670      -25.12940
C        -11.28170       10.47920      -25.05140
C        -10.36590        9.33630      -24.60360
C        -12.63720       10.48440      -25.35270
C        -13.23710       11.69760      -25.73130
C        -12.49080       12.88230      -25.80020
C        -11.13040       12.87140      -25.49650
C         -5.22880       10.37630      -23.53730
C         -4.37260        9.26540      -23.21710
C         -3.08300        9.50310      -22.73920
C         -2.64640       10.81950      -22.55170
C         -1.41420       10.74720      -21.78140
C         -0.87180        9.44710      -21.76330
C         -1.94060        8.52280      -22.37130
C          0.39550        9.18480      -21.16990
C          1.04320       10.23410      -20.48840
C          0.33670       11.43470      -20.33370
C         -0.88460       11.69680      -20.94840
C          1.06370       12.40740      -19.39730
C          1.19190       13.75060      -20.17210
C          1.94290       13.64960      -21.51240
C          0.11920       12.45670      -18.14220
C         -0.00000       11.17660      -17.30440
C          2.43670       11.73080      -19.18420
C          2.35300       10.42430      -19.82440
C          3.47170        9.61110      -19.84590
C          4.65650       10.08320      -19.26090
C          4.74460       11.36540      -18.66900
C          3.65180       12.24780      -18.61740
C          3.87860       13.59830      -17.96720
C          4.98930       14.40900      -17.88650
C          4.68240       15.62910      -17.04780
C          3.34280       15.45320      -16.71540
C          2.87980       14.30800      -17.21010
C          2.35720       16.43780      -16.10750
N          1.53950       17.25450      -15.60320
C          5.29220       16.77290      -16.68250
C          4.99060       17.81840      -15.68090
C          5.90740       18.82170      -15.77710
C          6.82600       18.44400      -16.83780
C          6.45610       17.24170      -17.30540
C          7.45630       16.26100      -17.89550
N          8.28600       15.44740      -18.38510
C          6.07670       19.89790      -14.80680
C          6.31740       21.19910      -15.07070
C          6.34960       22.31890      -14.08390
C          5.37540       22.41880      -13.00170
N          4.17910       21.76890      -12.63840
C          3.53140       20.55660      -13.12810
C          3.48800       19.43780      -12.07920
C          3.48510       22.50920      -11.68140
C          4.36040       23.45260      -11.16910
C          3.94850       24.28650      -10.09830
C          2.63400       24.17090       -9.65870
C          1.74910       23.24690      -10.23230
C          2.15620       22.38590      -11.23190
C          0.44470       23.39530       -9.63390
C          0.50540       24.41930       -8.66840
C          1.91050       24.99170       -8.60620
C         -0.61780       24.78400       -7.94650
C         -1.81520       24.10850       -8.20650
C         -1.87720       23.09130       -9.17380
C         -0.74060       22.72820       -9.89660
C          5.51950       23.42610      -12.00600
C          6.63020       24.29200      -11.99730
C          7.46840       24.29020      -13.09170
C          7.29460       23.40110      -14.17430
C          8.24270       23.87400      -15.20980
C          9.07750       24.90480      -14.69520
C          8.61920       25.25830      -13.30320
C         10.13760       25.48940      -15.41430
C         10.35540       25.04180      -16.71240
C          9.44680       24.13660      -17.27580
C          8.38250       23.56540      -16.54400
C          9.93180       23.69590      -18.67910
C          9.91830       22.15140      -18.63060
C         10.74390       21.55940      -17.48410
C          9.03270       24.37260      -19.75530
C          7.55010       24.02580      -19.70680
C         11.35140       24.34090      -18.78840
C         11.47880       25.21460      -17.63200
C         12.59520       26.01200      -17.44680
C         13.60970       25.93810      -18.38900
C         13.51350       25.05960      -19.49110
C         12.39600       24.21650      -19.75330
C         12.51560       23.32680      -20.99280
C         11.60160       22.50800      -21.57790
C         12.13820       21.85220      -22.79720
C         13.50900       22.37020      -22.88740
C         13.71380       23.19880      -21.86530
C         14.50660       22.08620      -23.88440
N         15.33470       21.90410      -24.66450
C         11.44920       21.04060      -23.64920
C         11.96610       20.46000      -24.90570
C         10.95960       19.88360      -25.61200
C          9.76140       19.98860      -24.77500
C         10.03790       20.60460      -23.60470
C          9.11020       20.70390      -22.53290
N          8.34910       20.76560      -21.65740
C         11.17970       19.22180      -26.91000
C         10.64730       19.57650      -28.10230
C         11.08860       19.10690      -29.45520
C         12.10220       19.86870      -30.16140
N         13.02370       20.86510      -29.81070
C         13.43020       21.25850      -28.47070
C         14.61060       20.43190      -27.98620
C         13.68310       21.37890      -30.92700
C         13.21120       20.67890      -32.02840
C         13.63750       21.00790      -33.33360
C         14.56220       22.02660      -33.46240
C         15.08940       22.69040      -32.34240
C         14.67440       22.37640      -31.05260
C         16.03280       23.68610      -32.80540
C         16.08770       23.64070      -34.21630
C         15.13910       22.58750      -34.74360
C         16.89430       24.50130      -34.93970
C         17.64200       25.44260      -34.23110
C         17.58640       25.49850      -32.82730
C         16.78700       24.60900      -32.10340
C         12.35600       19.66040      -31.53540
C         11.78230       18.59610      -32.23250
C         10.90800       17.79410      -31.54810
C         10.48860       18.06240      -30.22000
C          9.37180       17.13730      -29.99460
C          9.23060       16.25580      -31.10660
C         10.21850       16.60930      -32.17350
C          8.21440       15.31980      -31.24280
C          7.23950       15.34050      -30.26850
C          7.31130       16.25970      -29.18470
C          8.40040       17.12650      -29.02260
C          5.99900       16.22630      -28.37970
C          6.22060       15.70430      -26.93670
C          7.14150       16.50040      -26.01180
C          5.17230       17.53590      -28.50900
C          5.78750       18.84680      -28.05330
C          5.19370       15.16100      -29.18850
C          5.96430       14.66160      -30.25540
C          5.42120       13.76950      -31.17270
C          4.06920       13.43580      -31.06240
C          3.28640       13.97010      -30.02880
C          3.85040       14.81640      -29.06880
H         -3.34060       10.83190      -37.33520
H         -1.60710       12.19990      -38.59940
H         -4.83640       12.44880      -35.89210
H         -2.60750       16.88150      -37.14700
H          0.47610       16.46140      -40.00020
H         -0.49820       18.98000      -39.49390
H         -1.36350       19.23470      -36.70360
H         -2.95980       19.74190      -39.46610
H         -3.76650       20.78030      -40.66180
H         -3.62610       21.29230      -37.71960
H         -5.02540       20.72520      -38.59900
H         -4.38820       22.32260      -38.90730
H          0.34160       24.91930      -41.37180
H         -3.25840       21.77030      -42.49650
H         -0.95660       26.27430      -43.69560
H          0.18840       25.22050      -44.37290
H         -1.58380       26.12910      -46.62730
H         -3.39720       25.14280      -47.92570
H         -4.68490       23.29250      -47.03190
H         -4.17980       22.38300      -44.82980
H          1.14260       24.30250      -38.80650
H          2.72350       23.40050      -36.42150
H          1.51740       24.50610      -35.96770
H          2.38420       23.51110      -33.37410
H         -0.62680       19.87560      -34.73630
H         -2.33800       19.84690      -31.21690
H         -2.12100       20.00370      -32.98700
H         -2.15290       22.26640      -31.02790
H         -3.43560       21.84720      -32.13780
H         -1.89550       22.39980      -32.75100
H         -0.10450       18.27930      -32.77030
H         -0.25600       18.28360      -30.99310
H          2.19820       19.06510      -32.53510
H          1.97590       17.57680      -31.64700
H          2.02420       19.10260      -30.79690
H          2.71930       23.32070      -30.79150
H          2.60530       22.94050      -28.39650
H          1.02720       21.38800      -27.45110
H          0.70760       19.02190      -27.00720
H         -2.70090       19.84110      -29.34200
H         -3.33150       16.25430      -25.92140
H          0.15790       14.98690      -23.93160
H         -3.16990       13.56050      -25.27920
H         -1.96880       13.55860      -22.61330
H         -6.60620       13.98560      -22.74250
H         -6.45790       14.17730      -24.62020
H         -4.56080       15.02760      -22.61660
H         -5.60880       16.01680      -23.60460
H         -4.37570       15.03160      -24.35400
H         -7.61250        8.52430      -23.86670
H         -8.25080       13.24910      -24.92960
H        -10.32600        8.56300      -25.34200
H        -10.69700        8.85590      -23.70670
H        -13.19220        9.61590      -25.29960
H        -14.24270       11.71660      -25.96230
H        -12.94970       13.76450      -26.07630
H        -10.57310       13.73880      -25.54290
H         -4.71020        8.29790      -23.34020
H         -2.27180        7.79700      -21.65830
H         -1.58350        7.95940      -23.20790
H          0.82850        8.25050      -21.23720
H         -1.37970       12.58650      -20.78030
H          1.71380       14.44650      -19.54900
H          0.19520       14.06140      -20.40620
H          2.95150       13.34020      -21.33370
H          1.94300       14.60500      -21.99410
H          1.45610       12.93330      -22.14090
H         -0.86190       12.70830      -18.48720
H          0.56730       13.17450      -17.48740
H         -0.44420       10.40340      -17.89580
H         -0.61240       11.36670      -16.44780
H          0.97330       10.86720      -16.98550
H          3.43570        8.67690      -20.28290
H          5.49060        9.47560      -19.26250
H          5.64400       11.66350      -18.26020
H          5.89850       14.21230      -18.33340
H          1.91600       13.96750      -17.06760
H          4.20560       17.79200      -15.01150
H          7.62520       19.00400      -17.17380
H          6.00470       19.63580      -13.81120
H          6.49780       21.44560      -16.05650
H          4.06990       20.20300      -13.98240
H          2.52030       20.80840      -13.37110
H          4.48630       19.16030      -11.81220
H          2.97800       18.58880      -12.48430
H          2.96930       19.78400      -11.20970
H          4.60110       24.95550       -9.66070
H          1.51510       21.68310      -11.63200
H          2.34450       24.85190       -7.63830
H          1.95380       26.04700       -8.77780
H         -0.57330       25.53230       -7.23730
H         -2.66590       24.36130       -7.67970
H         -2.77180       22.60830       -9.35120
H         -0.78180       21.98210      -10.60840
H          6.81190       24.91190      -11.19240
H          8.28700       26.27410      -13.24990
H          9.38870       25.18050      -12.56380
H         10.73030       26.22220      -14.99390
H          7.71740       22.92430      -17.00410
H         10.31130       21.78180      -19.55470
H          8.90320       21.85460      -18.46810
H         11.77120       21.83230      -17.60650
H         10.65450       20.49310      -17.49380
H         10.38260       21.93910      -16.55130
H          9.40360       24.08690      -20.71740
H          9.08810       25.42240      -19.55620
H          7.42170       22.98100      -19.89920
H          7.02690       24.59200      -20.44880
H          7.16040       24.26060      -18.73840
H         12.66990       26.64190      -16.63280
H         14.44650       26.53280      -18.28370
H         14.30640       25.02660      -20.15080
H         10.64630       22.35960      -21.21670
H         14.60260       23.69560      -21.69740
H         12.95350       20.48840      -25.20460
H          8.82880       19.63810      -25.04400
H         11.80580       18.40140      -26.90970
H          9.85590       20.23850      -28.07740
H         12.60750       21.11700      -27.80130
H         13.72560       22.28660      -28.49570
H         14.33350       19.39880      -27.95450
H         14.89420       20.75520      -27.00640
H         15.43470       20.55980      -28.65650
H         13.27270       20.50720      -34.15900
H         15.07230       22.85000      -30.22650
H         15.66020       21.83580      -35.29880
H         14.40360       22.96560      -35.42250
H         16.94130       24.44880      -35.96930
H         18.24340       26.10610      -34.74400
H         18.14380       26.20640      -32.32410
H         16.76020       24.64000      -31.07220
H         12.00790       18.42030      -33.22410
H          9.73050       16.87640      -33.08750
H         10.87610       15.81080      -32.44680
H          8.19030       14.64870      -32.02640
H          8.47100       17.74010      -28.19590
H          6.62690       14.71760      -27.01550
H          5.25690       15.77860      -26.47780
H          8.13920       16.48000      -26.39800
H          7.12840       16.06520      -25.03450
H          6.80150       17.51340      -25.95570
H          4.27570       17.39710      -27.94180
H          5.05760       17.66170      -29.56540
H          5.94310       18.81890      -26.99500
H          5.12780       19.65360      -28.29570
H          6.72510       18.99180      -28.54790
H          6.00490       13.36200      -31.91980
H          3.64330       12.79120      -31.74670
H          2.28270       13.73620      -29.97600
H          3.28190       15.17820      -28.28720
