130
630_317_01010101.out	Energy:   -3906.5801003
C        -10.44800      -18.28100       10.91990
C        -10.64470      -17.45570        9.87360
C         -9.38910      -17.38300        9.11310
C         -8.48170      -18.33730        9.77040
C         -9.11230      -18.83020       10.85090
C         -7.26830      -18.86050        9.26690
N         -6.29520      -19.31600        8.82740
C         -9.13720      -16.59010        8.04790
C         -7.82940      -16.38820        7.41020
C         -7.97850      -15.55970        6.35450
C         -9.37930      -15.15990        6.30260
C        -10.06870      -15.74790        7.29410
C        -11.46360      -15.60570        7.46160
N        -12.61090      -15.49390        7.58550
C         -6.89140      -15.12000        5.50790
C         -7.05760      -14.75840        4.22460
C         -5.94110      -14.35290        3.35800
C         -5.27090      -15.32250        2.60060
F         -5.65780      -16.60640        2.65500
C         -4.20390      -14.99160        1.76580
C         -3.78240      -13.66930        1.67250
C         -4.44420      -12.68500        2.40490
C         -5.52530      -13.01610        3.24480
C         -6.18260      -11.92250        3.95320
C         -5.76160      -11.45950        5.14840
C         -6.52390      -10.24570        5.44100
C         -7.51620      -10.11690        4.36270
C         -7.28900      -11.10730        3.48500
C         -8.59850       -9.21190        4.26080
N         -9.49090       -8.47240        4.18450
C         -6.23780       -9.38060        6.43240
C         -6.76870       -8.02390        6.52250
C         -6.09270       -7.37440        7.48640
C         -5.21620       -8.32790        8.15340
C         -5.27550       -9.51470        7.53070
C         -4.57400      -10.66140        7.96840
N         -3.98600      -11.59140        8.33760
C         -6.25920       -5.99470        7.84750
C         -6.50070       -4.97850        6.99910
C         -6.55140       -3.53980        7.36840
C         -6.31350       -3.12030        8.70160
F         -6.05800       -3.99170        9.68920
C         -6.31990       -1.78590        9.08600
C         -6.55650       -0.80620        8.14020
C         -6.79360       -1.17440        6.81340
C         -6.80310       -2.52820        6.40140
C         -7.09250       -2.75540        4.96470
C         -6.17280       -2.71190        3.97090
C         -6.87090       -2.82980        2.67060
C         -8.22500       -2.92190        2.98520
C         -8.39150       -2.89130        4.32170
C         -9.38500       -3.01470        2.00720
N        -10.34720       -3.09170        1.19590
C         -6.48640       -2.77570        1.39470
C         -7.16170       -2.99370        0.11240
C         -6.26130       -2.81960       -0.87790
C         -5.01610       -2.40450       -0.27090
C         -5.19000       -2.40380        1.05130
C         -4.03030       -2.29830        2.02820
N         -3.06820       -2.21080        2.83860
C         -6.44540       -3.02120       -2.28520
C         -7.33740       -3.84790       -2.85350
C         -7.38550       -4.11180       -4.30760
C         -7.06230       -3.05410       -5.19250
F         -6.71130       -1.84290       -4.72850
C         -7.09490       -3.19480       -6.57030
C         -7.47920       -4.40560       -7.11380
C         -7.81390       -5.47110       -6.26990
C         -7.78440       -5.36290       -4.85610
C         -8.15220       -6.57690       -4.06220
C         -9.02540       -7.53160       -4.47220
C         -9.13340       -8.58310       -3.44500
C         -8.28150       -8.11740       -2.34560
C         -7.68180       -6.98740       -2.73900
C         -8.08440       -8.70280       -1.06810
N         -7.90480       -9.16680       -0.01860
C         -9.83970       -9.73360       -3.54630
C         -9.96910      -10.76680       -2.51020
C        -10.74670      -11.76020       -2.98540
C        -11.15530      -11.41600       -4.33630
C        -10.61060      -10.24160       -4.69080
C        -10.70210       -9.72290       -6.00200
N        -10.75680       -9.32230       -7.08840
C        -11.10250      -12.96700       -2.28890
C        -10.20770      -13.85090       -1.81900
C        -10.57300      -15.12620       -1.17870
C        -11.76290      -15.31190       -0.46030
F        -12.64530      -14.31100       -0.31770
C        -12.07110      -16.53030        0.13880
C        -11.17920      -17.59370        0.04360
C         -9.98120      -17.43050       -0.65030
C         -9.67730      -16.20460       -1.25480
H        -11.14170      -18.48860       11.65520
H        -11.52190      -16.96180        9.64620
H         -8.70600      -19.49680       11.52600
H         -6.94020      -16.81120        7.71910
H         -9.78360      -14.51680        5.60400
H         -5.94140      -15.08210        5.90920
H         -8.01110      -14.76560        3.82970
H         -3.72830      -15.72600        1.21860
H         -2.98600      -13.41900        1.06580
H         -4.13830      -11.70210        2.33100
H         -5.03530      -11.88360        5.74640
H         -7.81850      -11.26450        2.61320
H         -7.53000       -7.63160        5.94670
H         -4.63620       -8.12120        8.98160
H         -6.18710       -5.76090        8.85010
H         -6.66440       -5.21830        6.00880
H         -6.14940       -1.52770       10.07050
H         -6.55790        0.18940        8.41180
H         -6.96710       -0.43680        6.11270
H         -5.15360       -2.61300        4.09900
H         -9.29720       -2.95430        4.81240
H         -8.15640       -3.23860       -0.01210
H         -4.14880       -2.15380       -0.77090
H         -5.83630       -2.48120       -2.91960
H         -8.02310       -4.32260       -2.24570
H         -6.83560       -2.40560       -7.18270
H         -7.51930       -4.52400       -8.13820
H         -8.09290       -6.37010       -6.69290
H         -9.53690       -7.52270       -5.36840
H         -6.98050       -6.47380       -2.18270
H         -9.53650      -10.73720       -1.57370
H        -11.77180      -11.98860       -4.93380
H        -12.10450      -13.16530       -2.14160
H         -9.20540      -13.62350       -1.91190
H        -12.95900      -16.64420        0.65230
H        -11.40350      -18.49940        0.48460
H         -9.31570      -18.21630       -0.71880
H         -8.78530      -16.09250       -1.76170
