150
365_1027_01010101.out	Energy:   -7448.9050222
C         24.15620       -8.11250        9.71680
C         24.37670       -8.23390       11.04790
C         23.18630       -8.48880       11.79050
C         22.07220       -8.55260       10.96650
S         22.49560       -8.30180        9.30710
C         20.71870       -8.78090       11.31350
C         20.16470       -9.00220       12.56950
C         20.81320       -9.06730       13.88520
O         20.16740       -9.27430       14.89270
N         22.17990       -8.89680       14.02830
C         23.29460       -8.63960       13.24250
O         24.36500       -8.54720       13.80900
C         18.76390       -9.18500       12.50830
C         18.24890       -9.10700       11.23480
S         19.50970       -8.80310       10.07740
C         16.89490       -9.23680       10.79610
C         15.84590       -9.45450       11.63050
C         14.48360       -9.58400       11.22620
C         13.42450       -9.78740       12.07470
C         12.22460       -9.85500       11.26970
C         10.88500      -10.00260       11.25250
C         10.50190       -9.91700        9.81510
N         11.53990       -9.73250        9.03360
C         12.64680       -9.68140        9.87570
C         13.98360       -9.51630        9.82130
C          9.16080      -10.01920        9.34180
C          8.84040       -9.94900        8.02250
C          7.51060      -10.03880        7.51760
C          6.33410      -10.18340        8.21970
C          5.18320      -10.23440        7.40550
C          5.49450      -10.12850        6.04990
S          7.20060       -9.96450        5.80780
C          4.62460      -10.14810        4.94000
C          3.23610      -10.26820        4.92150
C          2.28180      -10.40120        6.02860
O          1.08870      -10.48870        5.82080
N          2.70200      -10.43310        7.34780
C          3.88280      -10.37960        8.06950
O          3.80120      -10.45500        9.27890
C          2.72250      -10.25420        3.60760
C          3.68570      -10.12810        2.63090
S          5.27110      -10.01900        3.33600
C          3.44010      -10.10010        1.22940
C          4.38360       -9.98890        0.25770
C          4.08440       -9.98490       -1.13990
C          2.85380      -10.09600       -1.73900
C          3.05970      -10.05660       -3.16850
C          2.48700      -10.11290       -4.38720
C          3.61470       -9.98920       -5.35260
N          4.77500       -9.86890       -4.75100
C          4.50230       -9.90750       -3.38550
C          5.13370       -9.86500       -2.19440
C          3.43460      -10.00790       -6.76610
C          4.45370       -9.88690       -7.65770
C          4.26770       -9.91390       -9.07120
C          3.09460      -10.09020       -9.77200
C          3.25350      -10.06790      -11.17320
C          4.58220       -9.86680      -11.54700
S          5.60840       -9.71310      -10.16090
C          5.12860       -9.77770      -12.84420
C          4.48010       -9.88400      -14.07400
C          3.06380      -10.11570      -14.38180
O          2.67550      -10.18850      -15.53020
N          2.11780      -10.25650      -13.38060
C          2.05350      -10.25070      -11.99740
O          0.96160      -10.40680      -11.48900
C          5.36990       -9.73580      -15.15850
C          6.67770       -9.51690      -14.78470
S          6.82520       -9.49640      -13.05260
C          7.81890       -9.31240      -15.61830
C          7.75710       -9.32040      -16.97640
C          8.84710       -9.10410      -17.86840
C          8.74590       -9.10980      -19.23800
C         10.05890       -8.83640      -19.77510
C         10.81000       -8.66190      -20.88100
C         12.18410       -8.38510      -20.37830
N         12.24640       -8.39570      -19.06710
C         10.95510       -8.66960      -18.62560
C         10.26060       -8.82410      -17.47990
C         13.30230       -8.13170      -21.22580
C         14.54640       -7.87560      -20.74170
C         15.68580       -7.61500      -21.55700
C         15.76940       -7.56220      -22.93150
C         17.06410       -7.27920      -23.41570
C         17.98540       -7.11340      -22.38210
S         17.23730       -7.30800      -20.83390
C         19.36360       -6.82780      -22.46220
C         20.15690       -6.64100      -23.59260
C         19.79470       -6.68180      -25.01400
O         20.62620       -6.49660      -25.87920
N         18.49430       -6.92980      -25.42380
C         17.25430       -7.20050      -24.86850
O         16.32580       -7.37050      -25.63260
C         21.50200       -6.37540      -23.25640
C         21.74530       -6.35550      -21.90070
S         20.28830       -6.67180      -21.00520
C         22.99740       -6.11190      -21.26900
C         23.18770       -6.09400      -19.92310
C         24.43610       -5.84670      -19.27800
C         25.66250       -5.59890      -19.84130
C         26.60800       -5.40990      -18.76180
C         27.88600       -5.15380      -18.41410
C         27.89190       -5.15370      -16.92390
N         26.71260       -5.39130      -16.42110
C         25.85600       -5.56330      -17.51270
C         24.56670       -5.82430      -17.78790
C         29.06420       -4.91670      -16.11500
C         29.02810       -4.92390      -14.78040
H         24.88160       -7.92030        8.94390
H         25.34180       -8.15140       11.52740
H         22.44640       -8.97200       15.00550
H         18.17850       -9.36840       13.39810
H         16.73050       -9.14710        9.72710
H         16.02530       -9.53810       12.69920
H         13.47110       -9.87910       13.14870
H         10.18640      -10.15160       12.06110
H         14.61240       -9.36270        8.95800
H          8.38820      -10.15760       10.09100
H          9.64060       -9.81610        7.30010
H          6.26790      -10.25190        9.29630
H          1.90730      -10.53120        7.97270
H          1.66420      -10.33830        3.40330
H          2.39260      -10.18380        0.95300
H          5.42960       -9.90340        0.53940
H          1.89670      -10.19820       -1.25190
H          1.45170      -10.22310       -4.67000
H          6.18670       -9.76730       -1.97800
H          2.41440      -10.12730       -7.11670
H          5.46600       -9.76140       -7.28520
H          2.12530      -10.23780       -9.31720
H          1.19510      -10.40180      -13.77960
H          5.02490       -9.79090      -16.18130
H          8.76370       -9.14010      -15.11300
H          6.79930       -9.49960      -17.45800
H          7.85010       -9.28280      -19.81400
H         10.53830       -8.69950      -21.92450
H         10.60990       -8.76470      -16.46070
H         13.11860       -8.14950      -22.29510
H         14.69240       -7.86710      -19.66520
H         14.93640       -7.71880      -23.60230
H         18.43360       -6.91690      -26.43770
H         22.25930       -6.20460      -24.00880
H         23.83120       -5.92980      -21.94100
H         22.33550       -6.27720      -19.27350
H         25.89890       -5.54970      -20.89290
H         28.75600       -4.97930      -19.02840
H         23.73840       -5.99260      -17.11660
H         29.99140       -4.72830      -16.64770
H         28.10490       -5.11060      -14.24710
H         29.90780       -4.74470      -14.17890
