174
630_710_01010101.out	Energy:   -6159.1473141
C          0.15450       10.56060       15.30680
C         -0.70010       11.24170       14.49940
C         -0.07340       11.42780       13.21000
C          1.24860       10.79220       13.31240
C          1.36680       10.27870       14.57590
C          2.22240       10.72140       12.30000
N          3.03530       10.65160       11.48360
C         -0.59410       12.06640       12.10480
C          0.02100       12.24520       10.83600
C         -0.83910       12.94260        9.99640
C         -2.05590       13.22540       10.75320
C         -1.92480       12.71050       12.00430
C         -2.89960       12.78640       13.01970
N         -3.72200       12.86910       13.82380
C         -0.56730       13.29660        8.66000
C         -1.42640       13.99140        7.83780
C         -1.14470       14.32530        6.50670
C          0.00850       14.04090        5.73270
N          1.10230       13.37450        6.15130
C          2.07010       13.21170        5.27380
C          3.28530       12.47030        5.74390
C          1.97580       13.71040        3.94460
C          3.08740       13.51560        2.95760
N          0.91390       14.36340        3.51890
C         -0.07890       14.53450        4.41000
C         -1.29600       15.20970        4.13800
S         -2.29950       15.20730        5.55260
C         -1.63560       15.78220        2.91460
C         -2.81950       16.44660        2.65330
C         -3.16390       17.00570        1.41710
C         -4.35920       17.69020        1.12580
C         -4.35260       18.08600       -0.21490
C         -3.07070       17.61810       -0.78480
C         -2.37330       16.98090        0.19810
C         -2.62580       17.79780       -2.10880
N         -2.23370       17.92570       -3.18650
C         -5.34780       18.78500       -0.91950
C         -5.35540       19.13070       -2.27160
C         -6.54800       19.82100       -2.57450
C         -7.31430       19.91320       -1.34260
C         -6.61390       19.29640       -0.34940
C         -7.03200       19.17820        0.99060
N         -7.39950       19.09490        2.08090
C         -6.89640       20.29160       -3.84020
C         -8.06890       20.97090       -4.14790
C         -8.41390       21.39350       -5.42600
C         -7.71100       21.22680       -6.65520
N         -6.51670       20.62790       -6.79460
C         -6.01650       20.56120       -8.01310
C         -4.68270       19.89300       -8.15770
C         -6.70460       21.09590       -9.13170
C         -6.13380       21.02000      -10.51550
N         -7.87780       21.68550       -9.00670
C         -8.39760       21.75800       -7.77050
C         -9.64790       22.35570       -7.43370
S         -9.90790       22.23510       -5.71840
C        -10.59290       22.94830       -8.26180
C        -10.48940       23.00660       -9.64720
C        -11.44230       23.55780      -10.50140
C        -11.37900       23.51640      -11.91310
C        -12.51730       24.11550      -12.44660
C        -13.32450       24.58180      -11.29800
C        -12.67660       24.23660      -10.14860
C        -14.55440       25.26470      -11.36540
N        -15.56140       25.82750      -11.38960
C        -12.88260       24.22060      -13.80360
C        -14.04010       24.77980      -14.33950
C        -14.04080       24.59730      -15.74120
C        -12.81030       23.90600      -16.08400
C        -12.10330       23.68130      -14.94110
C        -10.85040       23.04230      -14.87160
N         -9.82320       22.51710      -14.85000
C        -15.02160       24.94960      -16.66750
C        -16.18140       25.65280      -16.36880
C        -17.18180       25.93470      -17.28600
C        -18.35710       26.69090      -17.01970
N        -18.64010       27.26330      -15.83890
C        -19.77260       27.93630      -15.77020
C        -20.09250       28.58190      -14.45570
C        -20.64700       28.04730      -16.88320
C        -21.93170       28.81550      -16.79330
N        -20.37610       27.48510      -18.04540
C        -19.22300       26.79870      -18.13030
C        -18.73890       26.11510      -19.28160
S        -17.19820       25.38390      -18.93380
C        -19.32820       25.95340      -20.53150
C        -20.55440       26.48490      -20.90150
C        -21.16290       26.25980      -22.14190
C        -20.71460       25.46480      -23.21150
C        -21.66670       25.48950      -24.24040
C        -22.76190       26.36920      -23.77850
C        -22.44810       26.81690      -22.53030
C        -23.93040       26.69570      -24.49380
N        -24.89500       26.98490      -25.05710
C        -21.62930       24.79860      -25.45730
C        -22.60180       24.77610      -26.46980
C        -22.18780       23.91770      -27.49480
C        -20.88710       23.38520      -27.11800
C        -20.53980       23.90330      -25.90620
C        -19.34530       23.62640      -25.21420
N        -18.35800       23.37940      -24.67030
C        -22.92500       23.62130      -28.65690
C        -22.53240       22.73010      -29.62830
C        -23.29010       22.41740      -30.77130
C        -24.53850       22.92240      -31.19170
N        -25.26610       23.86150      -30.55230
C        -26.40780       24.20650      -31.10090
C        -27.21040       25.25310      -30.38820
C        -26.86820       23.61970      -32.31820
C        -28.17680       24.02690      -32.92760
N        -26.17730       22.70650      -32.95670
C        -24.99530       22.33840      -32.40720
C        -24.10760       21.38620      -32.92810
S        -22.72610       21.23700      -31.90860
C        -24.22290       20.58970      -34.11410
C        -25.26070       20.62430      -34.96010
H         -0.01870       10.26540       16.33080
H         -1.68570       11.59360       14.75560
H          2.21920        9.74880       14.97330
H          1.00350       11.89310       10.56700
H         -2.91490       13.75610       10.37180
H          0.39610       12.98830        8.26480
H         -2.39080       14.31010        8.22270
H          3.15540       12.17840        6.78490
H          4.17390       13.09760        5.65790
H          3.44550       11.57560        5.14030
H          4.00750       13.97640        3.32040
H          2.81340       13.96920        2.00630
H          3.28140       12.45300        2.80330
H         -0.88800       15.67700        2.13290
H         -3.54060       16.54320        3.46120
H         -5.15150       17.86870        1.83440
H         -1.39860       16.52980        0.09490
H         -4.58280       18.90630       -2.98860
H         -8.27770       20.38870       -1.24100
H         -6.19070       20.09910       -4.64290
H         -8.77560       21.18710       -3.35180
H         -4.33350       19.55760       -7.18230
H         -3.95190       20.58470       -8.57950
H         -4.75590       19.03310       -8.82530
H         -5.17020       21.52980      -10.56070
H         -6.81850       21.48990      -11.21990
H         -5.97840       19.98070      -10.80890
H        -11.47570       23.36220       -7.78320
H         -9.61370       22.56460      -10.11330
H        -10.57520       23.06630      -12.47230
H        -13.01320       24.43800       -9.14330
H        -14.82630       25.25480      -13.77620
H        -12.52140       23.63180      -17.08710
H        -14.86730       24.64630      -17.70030
H        -16.34580       26.02280      -15.36040
H        -19.29780       28.36840      -13.74250
H        -21.03690       28.20340      -14.06160
H        -20.18570       29.66280      -14.57270
H        -22.57820       28.39260      -16.02260
H        -22.44840       28.77690      -17.75130
H        -21.73760       29.85770      -16.53490
H        -18.78030       25.35430      -21.25300
H        -21.08870       27.10360      -20.18670
H        -19.79190       24.90870      -23.23230
H        -23.04000       27.47610      -21.91350
H        -23.53220       25.31990      -26.46060
H        -20.29920       22.69780      -27.70670
H        -23.87810       24.12940      -28.77090
H        -21.58520       22.20910      -29.52250
H        -26.68750       25.56090      -29.48380
H        -28.19350       24.86500      -30.11730
H        -27.35740       26.12450      -31.02840
H        -28.99930       23.82340      -32.24000
H        -28.33860       23.47070      -33.84990
H        -28.18030       25.09510      -33.15020
H        -23.39020       19.91890      -34.30900
H        -26.10960       21.27590      -34.80740
H        -25.28560       19.99570      -35.83880
