134
630_1054_01010101.out	Energy:   -4555.7058035
C        -13.54030       -2.76090       -1.87750
C        -14.78130       -2.77670       -1.33340
C        -15.14380       -1.42300       -0.95770
C        -13.99050       -0.58470       -1.33210
C        -13.04290       -1.40150       -1.87900
C        -13.87720        0.80700       -1.15420
N        -13.75860        1.94600       -1.01620
C        -16.30960       -1.00210       -0.37130
C        -16.67170        0.33080        0.00480
C        -17.92350        0.32030        0.58390
C        -18.40280       -1.06230        0.58280
C        -17.45820       -1.85610        0.01680
C        -17.56680       -3.25040       -0.16090
N        -17.69330       -4.38920       -0.28910
C        -18.61870        1.44690        1.09890
C        -19.83740        1.39270        1.70930
C        -20.50160        2.52900        2.22690
O        -19.95980        3.77410        2.12800
C        -20.78520        4.68040        2.69450
C        -21.90530        4.01190        3.21830
C        -21.71550        2.64810        2.90120
O        -22.53480        1.60980        3.16630
C        -23.09950        4.54640        3.90910
O        -23.58030        5.62600        3.72430
O        -23.65540        3.65960        4.76830
C        -20.35380        6.03340        2.67550
C        -19.19220        6.46820        2.05680
C        -19.07670        7.87620        2.22130
C        -20.25540        8.29300        3.00620
C        -21.01030        7.18890        3.26580
C        -20.55880        9.60820        3.41150
N        -20.81790       10.67890        3.75220
C        -18.08530        8.70500        1.72370
C        -17.97920       10.11220        1.86430
C        -16.87450       10.56240        1.15580
C        -16.23470        9.39780        0.54810
C        -16.93760        8.28460        0.88330
C        -16.63280        6.96580        0.49110
N        -16.36490        5.89470        0.15850
C        -16.41510       11.88980        0.97310
C        -16.97440       12.98110        1.58020
C        -16.58450       14.31460        1.33750
O        -17.20500       15.31750        2.01940
C        -16.77280       16.51680        1.57910
C        -15.79150       16.30990        0.59210
C        -15.68470       14.91020        0.44840
O        -14.89410       14.22900       -0.40440
C        -15.00540       17.28350       -0.19860
O        -15.38890       18.35700       -0.55960
O        -13.77900       16.81860       -0.53820
C        -17.33130       17.66260        2.20410
C        -18.14000       17.61340        3.33100
C        -18.57450       18.92860        3.64640
C        -17.97950       19.81270        2.62660
C        -17.22150       19.05110        1.78830
C        -18.12760       21.21290        2.56480
N        -18.23730       22.35930        2.51010
C        -19.39160       19.31850        4.69620
C        -19.99340       20.58160        4.91010
C        -20.73970       20.54380        6.08190
C        -20.58760       19.20900        6.65980
C        -19.80870       18.46320        5.83410
C        -19.41440       17.12800        6.05480
N        -19.09570       16.03960        6.26230
C        -21.53420       21.59200        6.59430
C        -22.17030       21.57030        7.80890
C        -22.99760       22.61210        8.26540
O        -23.30170       23.67700        7.46480
C        -24.11340       24.52880        8.12130
C        -24.37570       24.01960        9.40340
C        -23.65010       22.80470        9.49030
O        -23.60670       21.98530       10.52790
C        -25.28650       24.38700       10.49870
O        -25.20210       23.84310       11.57550
O        -26.24250       25.28310       10.24200
C        -24.54100       25.68910        7.41930
C        -24.54780       25.81250        6.03830
C        -25.09670       27.07500        5.68720
C        -25.37920       27.76480        6.95720
C        -25.04920       26.92560        7.98470
C        -25.87960       29.07400        7.10270
N        -26.29430       30.14040        7.24520
C        -25.36140       27.55630        4.41400
C        -25.97520       28.78230        4.05410
C        -26.09220       28.85130        2.67530
C        -25.52030       27.62530        2.11900
C        -25.08180       26.84600        3.14170
C        -24.47540       25.58070        3.00940
N        -23.98830       24.54420        2.87530
C        -26.68210       29.91280        1.94260
C        -26.81810       29.94030        0.58660
C        -27.43420       31.00440       -0.12040
O        -27.93650       32.09660        0.54200
C        -28.46600       32.93640       -0.34190
C        -28.34060       32.44320       -1.62300
C        -27.66980       31.18840       -1.47760
O        -27.33780       30.35710       -2.45700
C        -28.74170       32.93940       -2.95010
O        -28.51120       32.29970       -3.94580
O        -29.36720       34.12040       -3.00080
H        -12.98720       -3.60730       -2.25610
H        -15.41380       -3.63750       -1.19290
H        -12.07690       -1.09970       -2.25460
H        -16.05310        1.20150       -0.14070
H        -19.35690       -1.38770        0.96870
H        -18.12720        2.41090        1.00220
H        -20.36660        0.45480        1.83790
H        -23.44760        1.89640        3.32640
H        -23.06210        2.93570        5.01270
H        -18.49510        5.83690        1.53130
H        -21.93900        7.16470        3.81070
H        -18.66850       10.72660        2.41940
H        -15.34490        9.44150       -0.06150
H        -15.57770       12.03070        0.29720
H        -17.78670       12.86020        2.28970
H        -14.57100       14.78760       -1.12950
H        -13.48430       16.07380        0.00390
H        -18.40930       16.71650        3.86410
H        -16.65240       19.40240        0.94410
H        -19.90820       21.43110        4.25210
H        -21.03780       18.87800        7.58300
H        -21.63990       22.47770        5.97400
H        -22.05120       20.73760        8.49340
H        -24.14720       22.38140       11.25690
H        -26.26060       25.59520        9.32400
H        -24.23250       25.04680        5.34920
H        -25.06200       27.17910        9.03390
H        -26.30960       29.53690        4.74700
H        -25.46150       27.38860        1.06780
H        -27.05870       30.75250        2.52000
H        -26.46040       29.12760       -0.03600
H        -28.90100       33.84550        0.04390
H        -27.62920       30.74400       -3.31560
H        -29.50120       34.54820       -2.14630
