202
630_932_01010101.out	Energy:   -8665.7722540
C        -27.47730       -9.66530        8.70190
C        -26.66440       -8.61670        8.48180
C        -26.45420       -7.92890        9.76100
C        -27.23150       -8.69820       10.75150
C        -27.82560       -9.71500       10.10230
C        -27.36870       -8.48320       12.14250
N        -27.48960       -8.31670       13.28520
C        -25.70040       -6.82340        9.94430
C        -25.51410       -6.13130       11.21490
C        -24.68730       -5.08280       11.02850
C        -24.33970       -5.03210        9.61720
C        -24.91300       -6.06020        8.96750
C        -24.71650       -6.31660        7.59240
N        -24.54330       -6.52250        6.46320
C        -24.29990       -4.15360       12.06010
C        -24.15850       -4.50560       13.34830
C        -23.77460       -3.57160       14.34800
C        -23.01060       -2.42610       14.22930
C        -22.86440       -1.79090       15.48730
C        -23.49580       -2.42940       16.52570
S        -24.27810       -3.86320       15.97450
C        -23.22850       -1.63700       17.65020
C        -22.44130       -0.55670       17.31130
N        -22.22450       -0.66350       15.95760
C        -22.01130        0.36970       18.27590
C        -22.42540        0.19230       19.61610
C        -23.21520       -0.91340       19.93280
C        -23.61960       -1.81930       18.98100
C        -24.41570       -2.81710       19.56240
C        -24.46560       -2.49190       20.90130
N        -23.73510       -1.34260       21.12560
C        -25.22950       -3.38520       21.69670
C        -25.75250       -4.37980       20.90320
S        -25.33280       -4.24870       19.24430
C        -21.18440        1.49310       17.84550
C        -20.27860        2.06910       18.64780
C        -19.45500        3.18020       18.26090
C        -18.55800        3.74680       19.09340
C        -17.89140        4.83940       18.38510
C        -18.50430        4.87890       17.05200
C        -19.41150        3.89190       16.99470
C        -18.24400        5.74690       15.96860
N        -18.04670        6.44940       15.06690
C        -16.90770        5.60860       18.89210
C        -16.24190        6.70290       18.19250
C        -15.28830        7.21060       18.99760
C        -15.31370        6.47460       20.25010
C        -16.26810        5.53450       20.20990
C        -16.53810        4.66930       21.29290
N        -16.74960        3.96910       22.19220
C        -14.44990        8.31350       18.61410
C        -13.48910        8.83470       19.39240
C        -12.70120        9.95120       18.99180
C        -12.11730       10.88600       19.82930
C        -11.39020       11.84590       19.07840
C        -11.41740       11.63680       17.72200
S        -12.33650       10.24070       17.33060
C        -10.65600       12.67450       17.17720
C        -10.16250       13.48980       18.17200
N        -10.63710       12.97080       19.35430
C         -9.35570       14.59670       17.87110
C         -9.06510       14.88330       16.51840
C         -9.58440       14.03670       15.52920
C        -10.36260       12.94450       15.83660
C        -10.73970       12.25790       14.67050
C        -10.17080       12.97630       13.64200
N         -9.47720       14.05400       14.16100
C        -10.42630       12.45380       12.34560
C        -11.19880       11.31930       12.44460
S        -11.61490       10.89650       14.05390
C         -8.84470       15.41630       18.96300
C         -9.53890       16.46920       19.41440
C         -9.10670       17.29030       20.51070
C         -9.82160       17.42380       21.64580
C         -9.10500       18.32990       22.54600
C         -7.90570       18.75320       21.80440
C         -7.91660       18.11800       20.61960
C         -6.88930       19.65430       22.19660
N         -6.05240       20.39660       22.51030
C         -9.49620       18.65480       23.79570
C         -8.79730       19.56860       24.69480
C         -9.43980       19.58010       25.87820
C        -10.60830       18.72340       25.77550
C        -10.65920       18.17550       24.55360
C        -11.68620       17.29150       24.15210
N        -12.52720       16.56330       23.83410
C         -9.03940       20.40770       26.97860
C         -9.26920       20.09550       28.26220
C         -8.85980       20.96030       29.31590
C         -8.20650       22.17770       29.24710
C         -8.02510       22.72670       30.53770
C         -8.50880       21.94890       31.55780
S         -9.19500       20.49090       30.94380
C         -8.24300       22.68280       32.72040
C         -7.61780       23.87480       32.41820
N         -7.47870       23.88420       31.05030
C         -7.27260       24.79890       33.41870
C         -7.54920       24.46420       34.76520
C         -8.18250       23.25040       35.04260
C         -8.53440       22.36710       34.05050
C         -9.16400       21.23830       34.59650
C         -9.17230       21.46510       35.95570
N         -8.57670       22.68090       36.22580
C         -9.77010       20.42990       36.72200
C        -10.20980       19.42930       35.88610
S         -9.90940       19.72250       34.22270
C         -6.61830       26.04550       33.02700
C         -6.74400       27.18130       33.72930
C         -6.12100       28.41070       33.33810
C         -6.36190       29.02610       32.16400
C         -5.57960       30.25780       32.12220
C         -4.82750       30.29530       33.38480
C         -5.17080       29.20620       34.09250
C         -3.88930       31.25050       33.83590
N         -3.11330       32.02810       34.21120
C         -5.59880       31.14920       31.11240
C         -4.82930       32.38560       31.06540
C         -5.13320       33.03510       29.92450
C         -6.09700       32.23610       29.18760
C         -6.37780       31.11600       29.86950
C         -7.27690       30.13650       29.39400
N         -8.01350       29.33610       28.98940
C         -4.54710       34.29560       29.57120
C         -4.83240       34.96980       28.44870
C         -4.20040       36.20960       28.15720
C         -3.25000       36.89870       28.88730
C         -2.88730       38.09740       28.23500
C         -3.53570       38.31860       27.04860
S         -4.62510       37.02840       26.69820
C         -3.03400       39.54540       26.59720
C         -2.10660       40.05690       27.48210
N         -2.02420       39.13760       28.49970
C         -1.47060       41.29140       27.26290
C         -1.80090       42.00470       26.08510
C         -2.74940       41.46620       25.20460
C         -3.36120       40.25820       25.44200
C         -4.26070       39.94360       24.41240
C         -4.18040       41.00750       23.54070
N         -3.26490       41.92690       24.01910
C         -5.02980       40.90180       22.40650
C         -5.73870       39.72360       22.46320
S         -5.39330       38.76520       23.84250
C         -0.46950       41.74710       28.23240
C         -0.22030       43.03460       28.50540
H        -27.80150      -10.33030        7.98240
H        -26.25930       -8.34380        7.57270
H        -28.43710      -10.42280       10.53840
H        -25.94600       -6.40110       12.11260
H        -23.74180       -4.31370        9.17950
H        -24.12280       -3.17170       11.79630
H        -24.33430       -5.48530       13.62090
H        -22.60290       -2.08110       13.34630
H        -21.69730       -0.03620       15.41200
H        -22.14890        0.86760       20.34590
H        -23.60850       -0.90400       21.99790
H        -25.37110       -3.30140       22.71550
H        -26.34570       -5.13880       21.27330
H        -21.30180        1.85750       16.88710
H        -20.16600        1.69140       19.60150
H        -18.37290        3.45800       20.06680
H        -19.99340        3.67060       16.17160
H        -16.46440        7.03260       17.24030
H        -14.68890        6.65000       21.05250
H        -14.59620        8.73070       17.68160
H        -13.31450        8.41010       20.31660
H        -12.19950       10.88500       20.85800
H        -10.46780       13.34070       20.25080
H         -8.48380       15.69730       16.26450
H         -8.98590       14.72510       13.63430
H        -10.08400       12.86350       11.46240
H        -11.50090       10.77170       11.62370
H         -7.93650       15.18230       19.39380
H        -10.43060       16.70260       18.95030
H        -10.72340       16.96410       21.84690
H         -7.18770       18.20510       19.89430
H         -7.95260       20.11410       24.46240
H        -11.29480       18.56140       26.52880
H         -8.54800       21.29120       26.77150
H         -9.75160       19.21210       28.49030
H         -7.89340       22.62530       28.37150
H         -7.05760       24.60080       30.52270
H         -7.28750       25.10610       35.52970
H         -8.45500       23.07400       37.12020
H         -9.86110       20.42820       37.75000
H        -10.67920       18.57690       36.22970
H         -6.03570       26.05230       32.17510
H         -7.31450       27.16910       34.58910
H         -6.99180       28.68510       31.42120
H         -4.81270       28.97100       35.03140
H         -4.16380       32.70940       31.78470
H         -6.50500       32.49240       28.27500
H         -3.86230       34.70960       30.22270
H         -5.52170       34.58290       27.78530
H         -2.85840       36.58000       29.78740
H         -1.44220       39.21060       29.29040
H         -1.34920       42.90920       25.87770
H         -3.02240       42.77430       23.58050
H         -5.10390       41.60320       21.65320
H         -6.41820       39.44180       21.73940
H          0.07720       41.03120       28.73600
H         -0.74850       43.77650       28.02010
H          0.50000       43.28450       29.20090
