162
630_332_01010101.out	Energy:   -4861.2067714
C         -5.06580       -4.68000        0.33020
C         -4.95670       -3.44300        0.87000
C         -5.57420       -2.48470       -0.02930
C         -6.07020       -3.27550       -1.17230
C         -5.75770       -4.58290       -0.93970
C         -6.74560       -2.77230       -2.30030
N         -7.30000       -2.37740       -3.23140
C         -5.67660       -1.12890        0.13570
C         -6.27560       -0.18030       -0.75640
C         -6.16050        1.08630       -0.22470
C         -5.46760        0.96890        1.05890
C         -5.17530       -0.33750        1.28490
C         -4.51080       -0.84100        2.42200
N         -3.96500       -1.21970        3.36410
C         -6.62250        2.28940       -0.82770
C         -6.45880        3.53160       -0.29200
C         -6.92030        4.73730       -0.89790
C         -7.85130        4.86680       -1.89720
C         -8.13620        6.26980       -2.09250
C         -9.02190        6.77690       -3.06730
N         -9.74620        7.18850       -3.86300
C         -7.40650        7.00580       -1.18770
C         -6.58120        6.10770       -0.43170
C         -5.56670        6.47260        0.42180
C         -5.35650        7.81180        1.02710
C         -4.09060        7.83020        1.55280
C         -3.48020        6.53740        1.34360
C         -4.38220        5.71400        0.70930
C         -2.16740        6.19860        1.73550
N         -1.09720        5.92110        2.05920
C         -6.32930        8.84600        1.19440
C         -6.06310       10.18500        1.40690
C         -7.28730       10.88630        1.59490
C         -8.35900        9.86850        1.51280
C         -7.77580        8.66220        1.27300
C         -9.73840       10.10240        1.67820
N        -10.86990       10.28330        1.81030
C         -7.46180       12.23640        1.83520
C         -8.68380       12.92940        2.03950
C         -8.41610       14.26400        2.30800
C         -6.96730       14.44130        2.26130
C         -6.38600       13.24710        1.97430
C         -5.00290       13.01270        1.84100
N         -3.86710       12.84480        1.73430
C         -9.32610       15.30600        2.61520
C        -10.68560       15.14810        2.63350
C        -11.61140       16.16560        2.97950
C        -11.35060       17.50720        3.15470
C        -12.59240       18.20140        3.36440
C        -12.70460       19.58520        3.62110
N        -12.79230       20.71440        3.83150
C        -13.63060       17.29780        3.28310
C        -13.08450       15.98870        3.07920
C        -13.80000       14.81280        3.11170
C        -15.27640       14.68870        2.99510
C        -15.61390       13.41830        3.37310
C        -14.40360       12.69290        3.69910
C        -13.32040       13.51590        3.49650
C        -14.37330       11.36070        4.16310
N        -14.35760       10.27540        4.54950
C        -16.17670       15.66140        2.45230
C        -17.51820       15.78620        2.74230
C        -18.06540       16.86950        1.98950
C        -16.95980       17.38200        1.15000
C        -15.84330       16.66040        1.43930
C        -17.04430       18.42520        0.20680
N        -17.08830       19.28170       -0.56390
C        -19.34550       17.37790        2.05180
C        -19.87550       18.50390        1.35540
C        -21.18570       18.70770        1.74430
C        -21.52890       17.67110        2.71490
C        -20.44580       16.87240        2.90480
C        -20.38920       15.75630        3.76370
N        -20.36940       14.84540        4.47050
C        -22.04120       19.74720        1.28230
C        -23.28730       19.99440        1.77340
C        -24.12240       21.09010        1.38640
C        -24.89910       21.78630        2.27440
C        -25.37440       22.99510        1.63630
C        -26.14380       23.98770        2.28170
N        -26.77370       24.79180        2.81380
C        -24.93060       23.01390        0.33890
C        -24.22900       21.78240        0.07300
C        -23.94470       21.26590       -1.16510
C        -24.06330       21.96230       -2.47070
C        -23.35850       21.23770       -3.38650
C        -22.89650       20.00880       -2.76160
C        -23.28850       20.00880       -1.45110
C        -22.19870       18.98250       -3.43360
N        -21.62930       18.14340       -3.98020
C        -24.85550       23.12050       -2.79770
C        -24.53780       24.11380       -3.69120
C        -25.64400       25.01840       -3.80390
C        -26.70620       24.47170       -2.93400
C        -26.22450       23.34480       -2.34060
C        -28.00390       24.99480       -2.76960
N        -29.07090       25.40470       -2.61680
C        -25.72510       26.16570       -4.56060
C        -26.81420       27.08450       -4.63650
C        -26.49930       28.09770       -5.51980
C        -25.15890       27.83480       -6.04050
C        -24.68530       26.69340       -5.47540
C        -23.42780       26.10880       -5.72740
N        -22.39480       25.64750       -5.94960
C        -27.33750       29.20090       -5.84230
C        -27.05300       30.15630       -6.77070
C        -27.92290       31.23620       -7.11300
C        -28.01580       31.80190       -8.35800
C        -29.16750       32.67860       -8.39050
C        -29.57350       33.41760       -9.52330
N        -29.90030       34.01840      -10.45020
C        -29.77930       32.65670       -7.16190
C        -28.99270       31.83520       -6.27860
C        -29.10760       31.84080       -4.91340
C        -30.24200       32.37740       -4.15990
C        -29.99540       32.22950       -2.84530
C        -28.65750       31.63520       -2.68620
C        -28.14090       31.39690       -3.92390
C        -28.04160       31.39030       -1.44210
N        -27.54050       31.19190       -0.42360
H         -4.70630       -5.60630        0.75230
H         -4.49280       -3.18530        1.80760
H         -5.98090       -5.41960       -1.58390
H         -6.73930       -0.42820       -1.69730
H         -5.23190        1.79350        1.71410
H         -7.11310        2.18130       -1.79110
H         -5.95920        3.62790        0.66580
H         -8.34240        4.07330       -2.43850
H         -7.35830        8.08170       -1.14220
H         -3.62580        8.64100        2.09160
H         -4.17260        4.71820        0.35540
H         -5.08630       10.63960        1.39360
H         -8.27890        7.71020        1.20550
H         -9.65920       12.47330        2.00690
H         -6.46370       15.38130        2.42820
H         -8.89400       16.26970        2.86860
H        -11.09350       14.18360        2.35280
H        -10.38840       17.99340        3.11620
H        -14.66910       17.51710        3.46950
H        -16.60180       12.98500        3.37840
H        -12.30010       13.26430        3.73330
H        -18.06090       15.20150        3.46640
H        -14.87560       16.76050        0.97270
H        -19.33060       19.10720        0.64780
H        -22.49040       17.56180        3.19260
H        -21.62790       20.40240        0.52060
H        -23.64290       19.42020        2.62500
H        -25.06100       21.54420        3.31350
H        -25.10100       23.80350       -0.37330
H        -23.23310       21.46930       -4.43280
H        -23.14110       19.20620       -0.74870
H        -23.59230       24.23020       -4.19460
H        -26.76930       22.67800       -1.68990
H        -27.73550       26.99930       -4.08390
H        -24.63850       28.45520       -6.75400
H        -28.28720       29.23990       -5.31600
H        -26.16050       30.05800       -7.38290
H        -27.38980       31.59030       -9.21120
H        -30.63670       33.24010       -6.86680
H        -31.13840       32.76930       -4.61390
H        -30.63280       32.49670       -2.01680
H        -27.15330       31.02650       -4.14370
