134
630_976_01010101.out	Energy:   -5136.2910270
C        -11.14340       -3.43200        1.80440
C        -10.18840       -3.21470        2.73600
C        -10.42620       -1.92050        3.35630
C        -11.63540       -1.38060        2.69720
C        -12.04870       -2.29500        1.77700
C        -12.25740       -0.14980        2.98360
N        -12.78320        0.85130        3.20900
C         -9.69460       -1.32300        4.34410
C         -9.92680       -0.03640        4.94740
C         -8.98010        0.18540        5.92050
C         -8.09440       -0.97800        5.96140
C         -8.50350       -1.87530        5.02800
C         -7.89720       -3.12180        4.76450
N         -7.38440       -4.13480        4.56740
C         -8.89720        1.34590        6.74260
C         -7.99830        1.52210        7.74940
C         -7.97930        2.70040        8.54440
O         -8.85560        3.69080        8.28030
C         -8.71110        4.70500        9.17130
C         -7.69700        4.35720       10.05580
C         -7.21690        3.08270        9.65100
N         -6.24630        2.26110       10.32310
O         -5.78660        1.34220        9.69050
O         -5.99040        2.51970       11.46350
N         -7.15500        5.20010       11.10700
O         -7.95120        5.73700       11.83000
O         -5.96860        5.33260       11.14280
C         -9.53830        5.84900        8.95240
C        -10.39300        5.96020        7.87920
C        -11.06440        7.22350        7.94410
C        -10.55950        7.88560        9.16650
C         -9.64610        7.06570        9.75180
C        -10.94790        9.16120        9.62620
N        -11.26080       10.20530       10.00030
C        -11.96300        7.72760        7.03330
C        -12.65450        8.98130        7.07910
C        -13.41330        9.12170        5.93640
C        -13.22470        7.92070        5.12040
C        -12.37690        7.08050        5.76680
C        -11.94880        5.81910        5.30120
N        -11.60370        4.79120        4.91040
C        -14.21950       10.24450        5.59910
C        -14.82450       10.40770        4.38970
C        -15.59920       11.55110        4.06060
O        -15.84440       12.49570        4.99250
C        -16.55050       13.52120        4.45120
C        -16.76740       13.23310        3.10820
C        -16.17780       11.96770        2.85890
N        -16.05810       11.30020        1.58900
O        -15.78180       10.12650        1.61900
O        -16.20420       11.95790        0.60010
N        -17.56130       14.01240        2.17060
O        -17.30450       15.18220        2.08710
O        -18.43290       13.43630        1.59220
C        -16.96920       14.55640        5.34180
C        -16.80620       14.51060        6.70830
C        -17.37050       15.69620        7.28420
C        -17.87670       16.49600        6.14780
C        -17.64640       15.80380        5.00140
C        -18.52010       17.74830        6.23940
N        -19.05500       18.76650        6.30800
C        -17.47590       16.01020        8.61900
C        -18.03500       17.19910        9.18860
C        -18.01760       17.09450       10.56280
C        -17.42560       15.80100       10.90720
C        -17.08300       15.15440        9.76320
C        -16.48310       13.88150        9.67060
N        -15.99460       12.83970        9.60250
C        -18.49650       18.02990       11.52500
C        -18.89930       19.29460       11.21930
C        -19.40590       20.19650       12.19230
O        -19.62210       19.77340       13.45580
C        -20.15430       20.77280       14.20380
C        -20.28510       21.89520       13.39240
C        -19.80020       21.53390       12.11030
N        -19.82170       22.32990       10.90820
O        -19.09110       21.97600       10.01790
O        -20.57980       23.25390       10.86830
N        -20.73580       23.21330       13.81040
O        -21.74530       23.25440       14.45970
O        -20.04610       24.14170       13.51490
C        -20.42470       20.47220       15.57330
C        -20.24820       19.22610       16.13040
C        -20.64940       19.26940       17.50650
C        -21.07140       20.66410       17.75990
C        -20.93340       21.36970       16.60680
C        -21.52130       21.17570       18.99550
N        -21.88150       21.60060       20.00390
C        -20.66350       18.22620       18.40090
C        -21.12170       18.24610       19.75960
C        -20.98530       16.98780       20.30010
C        -20.41120       16.11670       19.27380
C        -20.21880       16.83730       18.13910
C        -19.68310       16.35290       16.92810
N        -19.24320       15.94340       15.94420
C        -21.32570       16.53220       21.61030
C        -21.91270       17.30240       22.56210
C        -22.24480       16.80380       23.85780
O        -21.93030       15.52650       24.18480
C        -22.30420       15.28820       25.44360
C        -22.87600       16.40850       25.98480
C        -22.84970       17.40230       24.95900
N        -23.22730       18.79240       25.04310
O        -23.48430       19.33890       24.00020
O        -23.21470       19.30960       26.12040
N        -23.47680       16.41450       27.30470
O        -23.05930       15.57220       28.05550
O        -24.35420       17.18970       27.52970
H        -11.24610       -4.29840        1.16860
H         -9.37310       -3.87010        2.99360
H        -12.90560       -2.20900        1.12650
H        -10.72290        0.63720        4.67400
H         -7.25210       -1.09000        6.62660
H         -9.62080        2.13100        6.53980
H         -7.26220        0.76740        7.99470
H        -10.53230        5.21740        7.11200
H         -9.09460        7.26400       10.65590
H        -12.57850        9.69940        7.87950
H        -13.69700        7.73920        4.16750
H        -14.32560       11.01820        6.35450
H        -14.71780        9.67050        3.60420
H        -16.34030       13.70970        7.25820
H        -17.90370       16.11790        4.00350
H        -18.41740       18.02800        8.61610
H        -17.28710       15.44620       11.91710
H        -18.52570       17.70170       12.56020
H        -18.83440       19.67720       10.20790
H        -19.88690       18.35350       15.61220
H        -21.15770       22.41400       16.46670
H        -21.51440       19.11790       20.25660
H        -20.18920       15.07060       19.42020
H        -21.10260       15.49330       21.83640
H        -22.16990       18.33790       22.37490
H        -22.13910       14.30350       25.85010
