146
630_100_01010101.out	Energy:   -3819.2109222
C         13.11530       22.35990        9.33760
C         12.05390       22.83220       10.03420
C         10.84430       22.57760        9.27260
C         11.28740       21.89970        8.04000
C         12.64600       21.77990        8.09690
C         10.46210       21.45770        6.98910
N          9.80420       21.09100        6.11530
C          9.55790       22.89870        9.61400
C          8.36270       22.65080        8.86070
C          7.27810       23.14770        9.54460
C          7.76800       23.73690       10.79180
C          9.11690       23.59320       10.84790
C          9.94260       24.03330       11.90190
N         10.58830       24.40510       12.78180
C          5.92020       23.10090        9.10570
C          4.87690       23.65560        9.77160
C          3.49910       23.64900        9.34520
C          3.04130       22.94310        8.21760
C          1.71810       22.98370        7.84080
C          0.77810       23.73960        8.56500
C          1.23480       24.44050        9.69640
C          2.55580       24.39010       10.08020
C         -0.61140       23.84290        8.19500
C         -1.22850       23.16000        7.19740
C         -2.60080       23.32010        6.84220
C         -3.27100       22.61960        5.85970
C         -4.61630       23.08920        5.77640
C         -4.74020       24.14910        6.80100
C         -3.54020       24.27100        7.42970
C         -5.89550       24.90040        7.09420
N         -6.82320       25.53390        7.35530
C         -5.61090       22.66840        4.91890
C         -6.93410       23.18620        4.79710
C         -7.60870       22.49680        3.80970
C         -6.70100       21.48580        3.27390
C         -5.50770       21.58110        3.91980
C         -4.37830       20.77320        3.68140
N         -3.46940       20.09630        3.46770
C         -8.94510       22.75450        3.38700
C         -9.61290       22.04510        2.44120
C        -10.95620       22.30600        1.98890
C        -11.69530       23.43560        2.38700
C        -12.97060       23.65340        1.91980
C        -13.58720       22.74980        1.03430
C        -12.85270       21.61450        0.64440
C        -11.57090       21.40390        1.10050
C        -14.92120       22.93810        0.52120
C        -15.68030       24.05100        0.68910
C        -17.00010       24.22720        0.18000
C        -17.75210       25.37960        0.29330
C        -19.02290       25.17980       -0.32170
C        -19.01150       23.79170       -0.83350
C        -17.80310       23.24090       -0.53550
C        -20.06230       23.14680       -1.51500
N        -20.90590       22.59970       -2.08020
C        -20.06050       26.08330       -0.42610
C        -21.34670       25.87590       -1.00470
C        -22.08830       27.03590       -0.89620
C        -21.25560       28.03550       -0.23410
C        -20.04790       27.48320        0.05710
C        -18.97810       28.13960        0.69640
N        -18.12180       28.70250        1.22590
C        -23.42860       27.29530       -1.30910
C        -24.25150       26.37060       -1.86910
C        -25.61750       26.58880       -2.26870
C        -26.25080       27.84380       -2.20140
C        -27.56680       27.99120       -2.57340
C        -28.32850       26.89880       -3.03150
C        -27.69200       25.64640       -3.11090
C        -26.37430       25.49950       -2.74220
C        -29.70790       27.11550       -3.38250
C        -30.58270       26.17910       -3.83210
C        -31.94830       26.45340       -4.14550
C        -32.63720       27.64570       -4.04610
C        -33.98860       27.44660       -4.45730
C        -34.09610       26.01930       -4.83220
C        -32.87800       25.44410       -4.64090
C        -35.25000       25.36590       -5.30690
N        -36.17970       24.80640       -5.69810
C        -35.00180       28.38140       -4.49640
C        -36.35840       28.18990       -4.89310
C        -37.04270       29.38280       -4.78160
C        -36.10310       30.39090       -4.29670
C        -34.88630       29.80950       -4.12160
C        -33.72620       30.46400       -3.66310
N        -32.79290       31.02710       -3.28540
C        -38.42230       29.58660       -5.08390
C        -39.06580       30.77540       -4.97270
C        -40.45860       31.02090       -5.26500
C        -40.96530       32.32310       -5.11530
C        -42.28850       32.60760       -5.38080
C        -43.17280       31.60670       -5.80670
C        -42.66900       30.30670       -5.95710
C        -41.34650       30.01960       -5.69400
C        -44.56400       31.95520       -6.07200
C        -45.52790       31.11890       -6.45420
H         14.15320       22.39590        9.63290
H         12.07600       23.31890       10.99510
H         13.28090       21.32990        7.34870
H          8.33180       22.15600        7.90380
H          7.14850       24.20390       11.54220
H          5.75600       22.59120        8.16050
H          5.06740       24.17990       10.70450
H          3.73490       22.35160        7.63080
H          1.40620       22.42950        6.96280
H          0.52950       25.02770       10.27510
H          2.88150       24.93940       10.95740
H         -1.19420       24.54010        8.79140
H         -0.67460       22.43580        6.60670
H         -2.84760       21.84570        5.24050
H         -3.31080       24.95970        8.22830
H         -7.33640       23.99810        5.38040
H         -6.94440       20.78550        2.48960
H         -9.43300       23.58750        3.88540
H         -9.12180       21.19530        1.97430
H        -11.25740       24.15790        3.06640
H        -13.50510       24.53580        2.25270
H        -13.30460       20.90040       -0.03610
H        -11.02380       20.52430        0.77760
H        -15.31830       22.10990       -0.06000
H        -15.28290       24.89980        1.23870
H        -17.43380       26.28980        0.77440
H        -17.48530       22.23830       -0.77760
H        -21.67390       24.94990       -1.44790
H        -21.57190       29.04490       -0.01800
H        -23.78610       28.30570       -1.13270
H        -23.87710       25.36160       -2.02120
H        -25.70170       28.71190       -1.85490
H        -28.03330       28.96890       -2.51140
H        -28.24050       24.78010       -3.46310
H        -25.90640       24.52280       -2.80840
H        -30.05860       28.13710       -3.25990
H        -30.26160       25.15070       -3.97030
H        -32.23620       28.58660       -3.70780
H        -32.61790       24.41170       -4.82040
H        -36.77790       27.25470       -5.22600
H        -36.34350       31.42610       -4.10910
H        -38.95810       28.70490       -5.42360
H        -38.50770       31.64520       -4.63550
H        -40.30160       33.11570       -4.78580
H        -42.65290       33.62210       -5.25720
H        -43.32250       29.50650       -6.28640
H        -40.99630       29.00160       -5.82170
H        -44.80460       33.00680       -5.93210
H        -45.36900       30.06050       -6.61140
H        -46.53630       31.46870       -6.62700
