122
630_1030_01010101.out	Energy:   -4018.2807180
C          7.03030       13.42060        2.25130
C          6.23490       12.71880        1.40970
C          4.84720       13.00580        1.72920
C          4.88950       13.95810        2.85540
C          6.20040       14.19170        3.15330
C          3.78080       14.52310        3.51360
N          2.88940       14.99640        4.07210
C          3.72900       12.50010        1.12520
C          2.35640       12.78120        1.43950
C          1.53890       12.05110        0.61220
C          2.39070       11.26600       -0.28250
C          3.69180       11.52470        0.00730
C          4.80450       10.95620       -0.64420
N          5.69520       10.47660       -1.19760
C          0.10690       12.05640        0.63500
C         -0.64800       11.27560       -0.16170
N         -2.03670       11.23590       -0.15780
C         -2.73630       10.32400       -0.99110
O         -2.19500        9.57080       -1.75120
C         -4.15770       10.52950       -0.70040
C         -4.29890       11.50150        0.23310
C         -2.92240       11.98950        0.60520
O         -2.62310       12.84420        1.39330
C         -5.49220       12.02020        0.82420
C         -6.77000       11.53050        0.65040
C         -7.68290       12.31690        1.42750
C         -6.86430       13.35020        2.08840
C         -5.56470       13.15800        1.73160
C         -7.34070       14.35890        2.95080
N         -7.71240       15.19000        3.65780
C         -9.04060       12.13310        1.56280
C         -9.95600       12.90670        2.33520
C        -11.21580       12.35860        2.23890
C        -11.12930       11.18570        1.36210
C         -9.84630       11.04490        0.94610
C         -9.36180       10.03650        0.08930
N         -8.98200        9.20280       -0.61090
C        -12.38780       12.84700        2.89010
C        -13.57980       12.21330        2.84750
N        -14.73130       12.64350        3.48230
C        -15.90800       11.84130        3.47570
O        -15.98090       10.78520        2.91360
C        -16.89650       12.58240        4.25830
C        -16.36150       13.75200        4.68980
C        -14.94180       13.82310        4.19420
O        -14.13430       14.69520        4.35870
C        -16.96000       14.78370        5.47570
C        -18.20430       14.74080        6.07200
C        -18.43290       15.97330        6.76730
C        -17.22780       16.79270        6.54410
C        -16.35640       16.07310        5.78490
C        -17.00890       18.09640        7.03530
N        -16.81660       19.16390        7.42500
C        -19.53880       16.32340        7.50990
C        -19.78060       17.54900        8.19540
C        -20.99410       17.48120        8.84440
C        -21.57580       16.16180        8.57150
C        -20.72750       15.46710        7.77400
C        -20.93350       14.16060        7.28780
N        -21.11950       13.09230        6.89580
C        -21.57370       18.51640        9.63590
C        -22.72500       18.36630       10.32720
N        -23.31570       19.34410       11.10690
C        -22.92300       20.69960       11.26370
O        -21.98490       21.21100       10.72050
C        -23.89430       21.28100       12.19580
C        -24.80120       20.34680       12.57560
C        -24.45400       19.06750       11.87350
O        -24.99340       17.99730       11.91530
C        -25.90240       20.47210       13.47670
C        -26.28610       21.61960       14.13940
C        -27.41980       21.32650       14.96620
C        -27.71310       19.89650       14.75670
C        -26.80840       19.40030       13.86840
C        -28.75780       19.17160       15.36620
N        -29.60510       18.56970       15.86470
C        -28.09140       22.19650       15.79550
C        -29.19390       21.91230       16.65750
C        -29.55560       23.06070       17.32520
C        -28.66800       24.13870       16.88090
C        -27.79040       23.64190       15.97470
C        -26.78050       24.37050       15.31540
N        -25.96220       24.98610       14.78540
C        -30.58410       23.27330       18.29650
C        -31.38950       22.29070       18.74880
N        -32.39290       22.46060       19.69380
C        -32.78830       23.63870       20.34250
O        -32.31420       24.72640       20.18650
C        -33.90610       23.23470       21.24730
C        -34.12750       21.92870       21.12220
C        -33.17300       21.36850       20.12510
O        -33.04410       20.24760       19.73360
H          8.10980       13.42500        2.27140
H          6.55280       12.05340        0.62440
H          6.57450       14.84090        3.93040
H          2.03030       13.45880        2.21130
H          2.03380       10.59480       -1.04870
H         -0.35480       12.72680        1.34970
H         -0.22370       10.58330       -0.88310
H         -4.93060        9.96240       -1.19480
H         -7.04740       10.68590        0.04120
H         -4.71750       13.74250        2.05210
H         -9.69440       13.77950        2.91040
H        -11.95870       10.55020        1.09210
H        -12.27370       13.76580        3.45260
H        -13.73010       11.27790        2.31550
H        -17.89320       12.20530        4.42520
H        -18.89630       13.91560        6.03500
H        -15.38110       16.39020        5.45290
H        -19.11140       18.39360        8.20520
H        -22.52800       15.81480        8.94230
H        -21.03070       19.45320        9.67000
H        -23.28480       17.43510       10.34030
H        -23.83660       22.31420       12.50010
H        -25.81310       22.58460       14.06080
H        -26.75290       18.38720       13.50370
H        -29.65160       20.94220       16.75920
H        -28.72560       25.15600       17.23670
H        -30.68920       24.28440       18.66990
H        -31.31490       21.26200       18.40730
H        -34.40800       23.95320       21.87680
H        -34.85550       21.30990       21.62360
