186
630_670_01010101.out	Energy:   -4876.0194873
C        -16.98850       18.20430       18.36910
C        -15.63930       18.33110       18.44500
C        -15.13660       18.75040       17.15310
C        -16.31900       18.86560       16.28490
C        -17.41720       18.53470       17.03020
C        -16.32710       19.24740       14.93100
N        -16.35810       19.55620       13.81950
C        -13.83130       18.99260       16.79870
C        -13.33230       19.40390       15.52600
C        -11.95940       19.53380       15.58860
C        -11.54390       19.19710       16.94930
C        -12.64370       18.87400       17.67860
C        -12.63560       18.49410       19.03550
N        -12.58650       18.19110       20.14710
C        -11.10690       19.92190       14.52010
C         -9.75170       20.03670       14.60580
C         -8.91700       20.42050       13.52310
N         -7.55240       20.52290       13.67800
C         -6.94900       20.89870       12.51540
C         -5.55620       21.16750       12.43290
C         -4.65030       20.91690       13.41790
C         -3.25590       21.18840       13.33310
N         -2.64050       21.72590       12.22680
C         -1.31020       21.85700       12.45160
C         -1.04400       21.40420       13.72640
C         -2.25860       20.98240       14.28390
C         -7.98030       21.02720       11.54390
C         -9.19380       20.74330       12.19940
C         -7.89210       21.34770       10.15000
C         -6.78510       21.26360        9.36750
C         -6.73450       21.58740        7.98110
C         -5.60900       21.49070        7.18090
C         -5.93640       21.87990        5.85490
C         -7.36830       22.24200        5.87850
C         -7.82860       22.06790        7.15000
C         -8.12910       22.70390        4.78740
N         -8.77310       23.08580        3.90950
C         -5.10380       21.90100        4.74700
C         -5.44880       22.19840        3.40390
C         -4.32870       22.05290        2.59910
C         -3.21660       21.66880        3.45670
C         -3.66150       21.57400        4.74090
C         -2.87100       21.25020        5.85970
N         -2.19680       20.99780        6.76170
C         -4.21160       22.20450        1.19130
C         -5.23220       22.57580        0.36500
C         -5.13950       22.68640       -1.04480
N         -3.99470       22.40360       -1.75960
C         -4.20580       22.55720       -3.09510
C         -3.21120       22.34560       -4.08260
C         -1.92530       21.97070       -3.83640
C         -0.94770       21.77470       -4.85280
N          0.34010       21.39940       -4.54510
C          1.07610       21.28270       -5.67870
C          0.26080       21.58600       -6.74840
C         -1.00770       21.89480       -6.23950
C         -5.55830       22.96960       -3.25750
C         -6.11640       23.04720       -1.96770
C         -6.18810       23.22020       -4.51330
C         -7.44660       23.71110       -4.67760
C         -8.05060       23.91510       -5.95140
C         -7.56730       23.56080       -7.20030
C         -8.50760       23.93830       -8.19430
C         -9.62980       24.58010       -7.47680
C         -9.34710       24.54910       -6.14400
C        -10.79110       25.12260       -8.05850
N        -11.75000       25.57770       -8.51120
C         -8.42540       23.72220       -9.56070
C         -9.36490       24.08430      -10.56040
C         -8.92480       23.62940      -11.79390
C         -7.64910       22.95810      -11.58760
C         -7.33270       23.01580      -10.26340
C         -6.16330       22.48890       -9.68230
N         -5.19010       22.05740       -9.23660
C         -9.60460       23.79360      -13.03000
C         -9.22250       23.23820      -14.21530
C         -9.90940       23.40410      -15.44590
N        -10.99830       24.23070      -15.60620
C        -11.45720       24.19640      -16.88890
C        -12.63190       24.88340      -17.29840
C        -13.31950       25.77550      -16.53420
C        -14.50460       26.45540      -16.93390
N        -15.11290       26.28890      -18.15600
C        -16.21610       27.07420      -18.23790
C        -16.33690       27.76760      -17.05270
C        -15.26730       27.38470      -16.23100
C        -10.61350       23.30360      -17.60350
C         -9.66840       22.81430      -16.68240
C        -10.66500       22.92440      -18.98510
C        -11.20600       23.64670      -20.00000
C        -11.27990       23.20120      -21.35420
C        -10.97580       21.95760      -21.88060
C        -11.25130       21.95680      -23.27480
C        -11.74130       23.31180      -23.59850
C        -11.75670       24.03760      -22.44390
C        -12.12940       23.78470      -24.86580
N        -12.45570       24.20200      -25.89120
C        -11.13090       20.90040      -24.16450
C        -11.44710       20.88810      -25.54630
C        -11.22050       19.61960      -26.05960
C        -10.73120       18.78520      -24.97010
C        -10.66870       19.53370      -23.83440
C        -10.23900       19.07390      -22.57510
N         -9.88280       18.66420      -21.55680
C        -11.41890       19.14110      -27.38180
C        -11.85310       19.91160      -28.42240
C        -12.07880       19.45260      -29.74230
N        -11.90570       18.15400      -30.15230
C        -12.20290       18.01090      -31.47870
C        -11.98280       16.74550      -32.10370
C        -11.91280       16.51500      -33.43870
C        -11.67580       15.23260      -34.01950
N        -11.59060       15.07880      -35.38290
C        -11.37200       13.77600      -35.69540
C        -11.31290       13.06290      -34.51860
C        -11.50190       13.96960      -33.46400
C        -12.61530       19.27970      -31.94210
C        -12.51700       20.16430      -30.86150
C        -13.14500       19.66380      -33.24570
C        -13.97080       18.93110      -33.98830
H        -17.65710       17.90710       19.16300
H        -15.02300       18.15460       19.31090
H        -18.44090       18.51910       16.68810
H        -13.94000       19.58230       14.65400
H        -10.52570       19.20640       17.30780
H        -11.59580       20.13540       13.57350
H         -9.24640       19.82710       15.54440
H         -7.07620       20.38380       14.55470
H         -5.21240       21.61790       11.50910
H         -4.97070       20.46230       14.35120
H         -3.10270       21.96800       11.36550
H         -0.65210       22.25880       11.69790
H         -0.07680       21.38000       14.20130
H         -2.40780       20.57240       15.26960
H        -10.16920       20.74980       11.74060
H         -8.83510       21.63760        9.69350
H         -5.85170       20.89940        9.78490
H         -4.63780       21.15800        7.50870
H         -8.83590       22.25220        7.49100
H         -6.43700       22.46870        3.07040
H         -2.20880       21.49550        3.10990
H         -3.23220       21.99420        0.76710
H         -6.20760       22.80180        0.78380
H         -3.12520       22.10980       -1.34550
H         -3.52290       22.50540       -5.10940
H         -1.59100       21.80630       -2.81430
H          0.68080       21.23450       -3.61200
H          2.11510       20.99590       -5.64600
H          0.55120       21.58450       -7.78630
H         -1.87530       22.17460       -6.81430
H         -7.12860       23.32230       -1.72030
H         -5.59670       22.99760       -5.39660
H         -8.04080       23.97620       -3.80770
H         -6.63370       23.06190       -7.40030
H         -9.96470       24.93250       -5.34580
H        -10.28380       24.61930      -10.38440
H         -7.05210       22.50380      -12.36360
H        -10.50800       24.39860      -12.99380
H         -8.34500       22.60120      -14.25810
H        -11.42170       24.76170      -14.86240
H        -12.99350       24.65130      -18.29400
H        -12.96350       26.02810      -15.53940
H        -14.78840       25.67490      -18.88520
H        -16.83100       27.08520      -19.12370
H        -17.11350       28.47360      -16.80790
H        -15.06240       27.73800      -15.23340
H         -8.87720       22.11500      -16.89930
H        -10.17670       21.98140      -19.21780
H        -11.59550       24.64240      -19.80990
H        -10.60870       21.10850      -21.32830
H        -12.06420       25.06710      -22.33560
H        -11.81700       21.73630      -26.09780
H        -10.46510       17.74350      -25.07040
H        -11.20770       18.08770      -27.55030
H        -12.05220       20.96620      -28.26100
H        -11.55320       17.40960      -29.57260
H        -11.81070       15.92000      -31.41690
H        -12.02510       17.33740      -34.13860
H        -11.67950       15.82970      -36.04770
H        -11.27550       13.45270      -36.71950
H        -11.15120       12.00100      -34.42840
H        -11.51370       13.73160      -32.41280
H        -12.76400       21.21370      -30.87530
H        -12.88290       20.66910      -33.56740
H        -14.31100       17.94960      -33.68590
H        -14.35860       19.29590      -34.92920
