154
630_190_01010101.out	Energy:   -7206.0639433
C         -0.57020       -3.16220        4.65460
C         -0.81970       -2.22590        3.71190
C         -1.59870       -1.15340        4.31210
C         -1.78580       -1.54340        5.72600
C         -1.16700       -2.74270        5.91050
C         -2.47070       -0.80340        6.70910
N         -3.02160       -0.20860        7.52900
C         -2.06990       -0.02540        3.70390
C         -2.86530        1.02150        4.29630
C         -3.15010        1.96710        3.34450
C         -2.52210        1.55050        2.09020
C         -1.87890        0.37150        2.29020
C         -1.15230       -0.34520        1.31660
N         -0.56320       -0.91210        0.50430
C         -3.94500        3.13890        3.55500
C         -4.21670        4.05310        2.59690
C         -4.97580        5.27100        2.77940
C         -6.11830        5.44300        3.59710
C         -6.87720        4.33410        4.24530
O         -6.63900        3.16620        4.19020
S         -8.29150        4.98890        5.09710
C         -7.96250        6.65410        4.59900
O         -8.65350        7.58540        4.88390
C         -6.72970        6.68970        3.76260
C         -6.28590        7.85930        3.11600
C         -5.20790        7.66560        2.24350
C         -4.58550        6.43310        2.08880
C         -3.45240        6.62210        1.14070
O         -2.66090        5.83460        0.73410
O         -3.45410        7.94950        0.78460
C         -4.46520        8.64940        1.39830
O         -4.64110        9.81300        1.24830
C         -6.90400        9.16620        3.29720
C         -7.32960       10.00100        2.30780
C         -7.89370       11.19040        2.90770
C         -7.73390       11.01830        4.36470
C         -7.16200        9.80440        4.58550
C         -8.11860       11.94410        5.35590
N         -8.42580       12.69350        6.17590
C         -8.48880       12.23700        2.25820
C         -9.05270       13.42550        2.84370
C         -9.60190       14.19940        1.85320
C         -9.39270       13.51550        0.57460
C         -8.72580       12.35540        0.80040
C         -8.35830       11.41010       -0.18030
N         -8.08240       10.64300       -0.99510
C        -10.28080       15.44470        2.04950
C        -10.94830       16.09890        1.07390
C        -11.74320       17.29750        1.25260
C        -11.42650       18.41280        2.06010
C        -10.12040       18.62180        2.74980
O         -9.15840       17.91800        2.69810
S        -10.16120       20.14410        3.66360
C        -11.80550       20.54450        3.14330
O        -12.40710       21.50840        3.50920
C        -12.30140       19.49430        2.21000
C        -13.55540       19.56310        1.57530
C        -13.84890       18.47050        0.74950
C        -12.97470       17.40420        0.58250
C        -13.60390       16.45720       -0.38020
O        -13.20670       15.41560       -0.79120
O        -14.80280       17.01470       -0.75310
C        -15.03310       18.21680       -0.12710
O        -16.00500       18.87280       -0.30600
C        -14.49680       20.66510        1.73430
C        -15.81660       20.54340        2.05000
C        -16.41760       21.85890        2.07320
C        -15.33500       22.79900        1.72420
C        -14.19410       22.08090        1.54300
C        -15.45910       24.19980        1.62320
N        -15.54970       25.34560        1.53980
C        -17.72280       22.16040        2.34980
C        -18.36410       23.44730        2.27110
C        -19.68560       23.31390        2.61360
C        -19.92770       21.90850        2.94990
C        -18.77460       21.21230        2.78630
C        -18.59820       19.83490        3.03440
N        -18.47040       18.71140        3.25780
C        -20.66060       24.36290        2.61110
C        -21.92920       24.21380        3.05100
C        -22.93810       25.25450        3.05270
C        -23.85440       25.39510        4.11930
C        -23.84430       24.53690        5.33530
O        -23.07130       23.66180        5.58620
S        -25.17670       25.00890        6.40950
C        -25.73080       26.30840        5.33870
O        -26.67830       26.99900        5.56160
C        -24.84640       26.37680        4.14160
C        -25.02760       27.29190        3.08920
C        -24.13640       27.13180        2.02020
C        -23.12780       26.17160        2.00330
C        -22.43490       26.29030        0.68390
O        -21.55730       25.64080        0.21740
O        -23.02380       27.33940        0.02200
C        -24.04070       27.90860        0.74740
O        -24.66940       28.84280        0.37410
C        -26.07000       28.31140        3.07690
C        -26.97100       28.52740        2.07830
C        -27.83660       29.62400        2.45560
C        -27.35080       30.08200        3.77180
C        -26.31290       29.28350        4.13960
C        -27.86080       31.16930        4.51050
N        -28.25660       32.06470        5.11870
C        -28.89450       30.11810        1.74320
C        -29.75660       31.21450        2.10320
C        -30.68950       31.39480        1.11390
C        -30.44770       30.39190        0.07430
C        -29.38800       29.62550        0.43520
C        -28.87090       28.53190       -0.28990
N        -28.48000       27.62790       -0.88850
C        -31.74380       32.36330        1.02990
C        -32.01380       33.26800        1.99670
C        -33.08190       34.24560        1.95160
C        -33.78990       34.60420        3.12350
C        -33.57390       33.99410        4.46460
O        -32.80780       33.12140        4.73930
S        -34.66950       34.74660        5.64880
C        -35.43690       35.79960        4.44760
O        -36.31440       36.57430        4.66980
C        -34.81040       35.55440        3.11770
C        -35.20500       36.21980        1.96180
C        -34.51060       35.88240        0.81150
C        -33.48790       34.93380        0.79160
C        -32.94120       34.92690       -0.59970
O        -32.03910       34.31250       -1.06830
O        -33.68430       35.82840       -1.32560
C        -34.64930       36.44160       -0.56450
O        -35.41060       37.25000       -0.97740
H         -0.02020       -4.08230        4.52720
H         -0.51130       -2.24680        2.67980
H         -1.11720       -3.30390        6.83120
H         -3.19080        1.03810        5.32370
H         -2.56720        2.10040        1.16270
H         -4.31670        3.27540        4.56480
H         -3.76130        3.94760        1.61760
H         -7.28250        9.81220        1.24880
H         -6.91050        9.37260        5.54080
H         -9.04250       13.65520        3.89680
H         -9.71740       13.88600       -0.38550
H        -10.27850       15.82740        3.06460
H        -11.02200       15.65250        0.08740
H        -16.34260       19.62530        2.25010
H        -13.22330       22.46760        1.27820
H        -17.87540       24.35840        1.96590
H        -20.87520       21.50360        3.27040
H        -20.31480       25.32680        2.25320
H        -22.23380       23.27260        3.49520
H        -27.05420       27.96880        1.16150
H        -25.73370       29.35300        5.04610
H        -29.65970       31.78730        3.01100
H        -31.03640       30.29870       -0.82560
H        -32.35860       32.31560        0.13800
H        -31.44070       33.24800        2.91740
H        -35.99640       36.95920        1.97240
