146
630_503_01010101.out	Energy:   -5991.9527370
C          4.01140        5.22560       -0.15030
C          2.96090        4.77710        0.57710
C          2.55270        5.82030        1.50080
C          3.47030        6.94970        1.25460
C          4.33360        6.57540        0.26640
C          3.46200        8.18990        1.92040
N          3.47160        9.21150        2.45620
C          1.53480        5.77670        2.41590
C          1.14120        6.81020        3.32890
C          0.08430        6.36620        4.09320
C         -0.23110        5.00180        3.66690
C          0.61930        4.63870        2.67340
C          0.62950        3.39480        2.01020
N          0.61750        2.36750        1.48710
C         -0.61340        7.03830        5.13640
C         -0.33450        8.30680        5.55070
C         -0.98020        8.98280        6.62070
C         -0.62920       10.36390        7.00010
N         -1.28460       10.80850        8.02990
C         -2.11290        9.77860        8.41930
C         -1.95580        8.62210        7.53360
C         -2.82030        7.54210        7.98890
S         -2.99470        6.03810        7.35360
C         -3.47240        8.08890        9.17060
C         -3.00830        9.45710        9.39970
N         -3.56300        9.96950       10.55240
C         -4.28930        9.01430       11.05270
C         -4.28870        7.78330       10.24300
C         -4.99870        6.59730       10.58310
C         -5.28530        5.51370        9.77610
C         -5.99460        4.53540       10.53590
C         -6.12210        5.09010       11.90130
C         -5.55110        6.32440       11.90760
C         -6.75400        4.47030       12.99750
N         -7.26390        3.98170       13.90910
C         -6.49050        3.32290       10.10310
C         -7.08600        2.29630       10.89100
C         -7.46630        1.24970       10.07050
C         -7.12290        1.61520        8.69650
C         -6.52310        2.83420        8.70450
C         -6.06070        3.52790        7.56740
N         -5.69880        4.06960        6.61640
C         -8.05360        0.03090       10.49940
C         -8.53080       -0.93840        9.66550
C         -9.08300       -2.17140       10.09600
C         -9.11170       -2.74160       11.45590
N         -9.66280       -3.91850       11.51390
C        -10.05400       -4.22420       10.22390
C         -9.69750       -3.13650        9.32400
C        -10.12160       -3.43560        7.96890
S         -9.87260       -2.50000        6.64470
C        -10.76000       -4.73850        8.09350
C        -10.67340       -5.19460        9.48390
N        -11.24380       -6.44210        9.61750
C        -11.65960       -6.77410        8.43160
C        -11.40680       -5.74710        7.40440
C        -11.82920       -5.84070        6.04980
C        -11.83800       -4.84270        5.09270
C        -12.39980       -5.35340        3.88530
C        -12.71850       -6.77430        4.15020
C        -12.39090       -7.04440        5.44190
C        -13.29420       -7.68630        3.24300
N        -13.77200       -8.45180        2.52520
C        -12.66040       -4.66870        2.71510
C        -13.20220       -5.19230        1.50640
C        -13.36810       -4.16320        0.59600
C        -12.91640       -2.92920        1.23520
C        -12.47990       -3.21490        2.48950
C        -11.98780       -2.27120        3.41350
N        -11.60420       -1.46150        4.13890
C        -13.89800       -4.21040       -0.72060
C        -14.23640       -5.35950       -1.37640
C        -14.79980       -5.40940       -2.67560
C        -15.24530       -4.29070       -3.52760
N        -15.75060       -4.67230       -4.66360
C        -15.67940       -6.05290       -4.67160
C        -15.08300       -6.52910       -3.43210
C        -14.99260       -7.97750       -3.43340
S        -14.41670       -8.91640       -2.21810
C        -15.54960       -8.35130       -4.72640
C        -15.97260       -7.14440       -5.44310
N        -16.52760       -7.47620       -6.65990
C        -16.47990       -8.77310       -6.73240
C        -15.86730       -9.41240       -5.55330
C        -15.65980      -10.81280       -5.41600
C        -14.94700      -11.47920       -4.43670
C        -14.96220      -12.87960       -4.71360
C        -15.77110      -13.04530       -5.94210
C        -16.16740      -11.81200       -6.35360
C        -16.07790      -14.25900       -6.58940
N        -16.34980      -15.23470       -7.14040
C        -14.32960      -13.89040       -4.02010
C        -14.35640      -15.28690       -4.30590
C        -13.57700      -15.96120       -3.38380
C        -13.02050      -14.96870       -2.46460
C        -13.45850      -13.73610       -2.83140
C        -13.09930      -12.52830       -2.19910
N        -12.76260      -11.56780       -1.65820
C        -13.35040      -17.36150       -3.36390
C        -12.57820      -18.01330       -2.44660
C        -12.32810      -19.41170       -2.43950
C        -11.49940      -20.05940       -1.40770
N        -11.36780      -21.34160       -1.56380
C        -12.08420      -21.65840       -2.69840
C        -12.70590      -20.45290       -3.26930
C        -13.44880      -20.80640       -4.46730
S        -14.32330      -19.85850       -5.47790
C        -13.24300      -22.24810       -4.58830
C        -12.39840      -22.73100       -3.47680
N        -12.20160      -24.08440       -3.59390
C        -12.84980      -24.44450       -4.67200
C        -13.52270      -23.34020       -5.34210
H          4.54350        4.68900       -0.92130
H          2.48730        3.81230        0.50230
H          5.13090        7.17350       -0.14800
H          1.61620        7.77520        3.39340
H         -1.02080        4.40140        4.09280
H         -1.40760        6.48160        5.63150
H          0.44870        8.86970        5.04920
H          0.10090       10.97230        6.48330
H         -4.84670        9.15180       11.96900
H         -5.00180        5.41250        8.74010
H         -5.48800        6.99350       12.75200
H         -7.20340        2.32660       11.96190
H         -7.30950        1.00260        7.82800
H         -8.12650       -0.10940       11.57470
H         -8.51890       -0.78650        8.58840
H         -8.71440       -2.26450       12.34120
H        -12.15670       -7.71780        8.25420
H        -11.47800       -3.83520        5.23740
H        -12.51030       -7.99190        5.94430
H        -13.44640       -6.22890        1.34310
H        -12.93360       -1.95850        0.76330
H        -14.02770       -3.25460       -1.22100
H        -14.06790       -6.32470       -0.90360
H        -15.18250       -3.24330       -3.26610
H        -16.85260       -9.30060       -7.59950
H        -14.45260      -11.01360       -3.59720
H        -16.76880      -11.59460       -7.22280
H        -14.90360      -15.74420       -5.11380
H        -12.36310      -15.18870       -1.63750
H        -13.83090      -17.93910       -4.15340
H        -12.10190      -17.44900       -1.64910
H        -11.03230      -19.53630       -0.58370
H        -12.86240      -25.47360       -5.00390
H        -14.10740      -23.42230       -6.24420
