122
630_322_01010101.out	Energy:   -3353.2159085
C          6.35920       11.39800        6.02720
C          5.14960       11.88330        5.69910
C          4.48630       10.89680        4.83020
C          5.44710        9.78650        4.69770
C          6.54150       10.10460        5.41130
C          5.31650        8.57830        3.97540
N          5.22310        7.58230        3.38660
C          3.25740       11.02670        4.28520
C          2.60100       10.05460        3.40800
C          1.41130       10.55530        3.02120
C          1.22560       11.83900        3.67770
C          2.30570       12.13740        4.41690
C          2.41910       13.32800        5.16550
N          2.49660       14.31690        5.77040
C          0.49610        9.85830        2.15870
C         -0.37820       10.48720        1.36080
C         -1.27630        9.71030        0.47510
O         -1.68150        8.39830        0.96400
C         -3.06070        8.68310        0.62670
C         -2.75280       10.17930        0.48110
C         -3.26200       10.84990       -0.72470
C         -2.97330       10.50050       -1.99150
C         -3.67220       11.42490       -2.88460
C         -4.42390       12.33740       -1.99870
C         -4.16260       11.98070       -0.72850
C         -5.29690       13.39720       -2.34300
N         -6.01580       14.27030       -2.61430
C         -3.60360       11.40200       -4.23220
C         -4.28460       12.33680       -5.11560
C         -4.01920       12.01530       -6.39740
C         -3.13310       10.85850       -6.38750
C         -2.87380       10.48860       -5.12090
C         -2.04130        9.39910       -4.78000
N         -1.36320        8.50220       -4.49090
C         -4.53580       12.71640       -7.54840
C         -5.36670       13.76780       -7.47900
C         -5.87050       14.43570       -8.69610
O         -6.77310       15.54750       -8.41450
C         -6.09470       16.34950       -9.41280
C         -4.88150       15.40650       -9.38570
C         -4.31050       14.95580      -10.66410
C         -3.24680       14.13190      -10.74940
C         -2.94100       13.93690      -12.17240
C         -3.93590       14.74630      -12.89680
C         -4.73140       15.33480      -11.99020
C         -4.09770       14.92550      -14.28740
N         -4.23570       15.07350      -15.42670
C         -1.94430       13.17610      -12.67370
C         -1.63640       13.00970      -14.09410
C         -0.56340       12.20420      -14.21450
C         -0.16440       11.77970      -12.88270
C         -0.95250       12.35830      -11.96210
C         -0.79740       12.15890      -10.57270
N         -0.67750       11.99490       -9.42980
C         -0.00350       11.82930      -15.48450
C          1.28390       11.49340      -15.64950
C          1.82290       11.17350      -16.98960
O          2.93860       10.23970      -16.99090
C          2.35060        9.53430      -18.11640
C          0.99240       10.20040      -17.86420
C          0.29050       10.77430      -19.02520
C         -0.60870       10.09710      -19.76550
C         -1.11310       11.01040      -20.80320
C         -0.41930       12.28690      -20.57550
C          0.39540       12.12750      -19.52110
C         -0.52290       13.50520      -21.28430
N         -0.58770       14.51230      -21.85630
C         -2.02560       10.70990      -21.75120
C         -2.51890       11.62250      -22.78550
C         -3.42240       10.97260      -23.54610
C         -3.54580        9.61710      -23.03000
C         -2.72990        9.44420      -21.98030
C         -2.62690        8.22710      -21.27500
N         -2.54610        7.22160      -20.69750
C         -4.11030       11.57700      -24.66000
C         -5.00260       10.92520      -25.41860
C         -5.68410       11.60430      -26.54180
O         -6.06110       10.71510      -27.62500
C         -7.43680       11.14890      -27.53960
C         -7.15380       11.95780      -26.27950
H          7.05050       11.87560        6.62630
H          4.75540       12.78750        6.00260
H          7.38310        9.51470        5.50470
H          2.98600        9.13780        3.13170
H          0.38680       12.43360        3.58860
H          0.51320        8.82650        2.15380
H         -0.42600       11.51810        1.36350
H         -0.68400        9.77940       -0.41330
H         -3.75240        8.45900        1.41170
H         -3.52900        8.15730       -0.17900
H         -3.12390       10.93010        1.14690
H         -2.36600        9.71840       -2.28200
H         -4.54500       12.44190        0.11180
H         -4.87820       13.12310       -4.80860
H         -2.75940       10.39180       -7.22870
H         -4.24800       12.38840       -8.48360
H         -5.66050       14.11780       -6.55370
H         -6.20530       13.56820       -9.22550
H         -5.87550       17.34620       -9.09150
H         -6.58000       16.56660      -10.34140
H         -3.93380       15.69810       -8.98370
H         -2.73780       13.71270       -9.95560
H         -5.52180       15.96140      -12.20820
H         -2.15590       13.43900      -14.87560
H          0.60990       11.12970      -12.67540
H         -0.62310       11.81830      -16.30970
H          1.90860       11.45750      -14.82890
H          1.95090       12.18430      -17.31630
H          2.33850        8.47050      -18.00150
H          2.80500        9.60280      -19.08270
H          0.13290        9.67000      -17.51110
H         -0.89260        9.11430      -19.62920
H          1.00450       12.86020      -19.12460
H         -2.22300       12.60310      -22.91130
H         -4.17140        8.89310      -23.41660
H         -3.90490       12.56310      -24.88480
H         -5.21690        9.93620      -25.21630
H         -4.97780       12.38950      -26.71340
H         -8.13140       10.34880      -27.38990
H         -7.89020       11.62860      -28.38170
H         -7.56500       11.55440      -25.37780
H         -7.49620       12.96220      -26.14270
