170
630_418_01010101.out	Energy:   -4566.5685622
C         11.47250        5.16070       -5.07990
C         10.23000        5.29670       -4.54860
C          9.51170        6.30690       -5.29520
C         10.44330        6.77230       -6.33380
C         11.61180        6.07380       -6.18830
C         10.18790        7.75660       -7.30520
N          9.99860        8.56200       -8.11030
C          8.22520        6.74860       -5.09060
C          7.52010        7.74120       -5.83220
C          6.24920        7.88860       -5.31050
C          6.12120        6.96130       -4.18850
C          7.28590        6.27710       -4.04400
C          7.54210        5.29550       -3.06660
N          7.71530        4.49790       -2.25180
C          5.20450        8.75540       -5.73020
C          5.30800        9.63130       -6.77160
C          4.26780       10.49580       -7.19360
N          4.44370       11.35570       -8.25700
C          3.32380       12.09400       -8.48510
C          3.21000       13.01280       -9.55750
C          4.20690       13.33570      -10.43130
C          4.08520       14.26920      -11.49310
N          2.97610       15.04650      -11.73230
C          3.18240       15.82310      -12.81690
C          4.44310       15.55070      -13.31640
C          5.01570       14.58160      -12.48880
C          2.36550       11.69650       -7.50360
C          2.97360       10.69670       -6.72410
C          1.03860       12.19800       -7.32380
C          0.47020       13.34820       -7.83910
C         -0.88490       13.43530       -7.43020
C         -1.13420       12.25600       -6.58120
C          0.01810       11.52650       -6.53070
C         -2.35450       11.92570       -5.96310
N         -3.34740       11.64350       -5.44720
C         -1.80250       14.41230       -7.78950
C         -3.12330       14.59400       -7.31630
C         -3.68540       15.70720       -7.92920
C         -2.69960       16.24900       -8.84820
C         -1.56910       15.48500       -8.77860
C         -0.42300       15.63040       -9.57690
N          0.50550       15.73490      -10.25720
C         -4.99770       16.19800       -7.70130
C         -5.53380       17.31980       -8.26350
C         -6.85760       17.77610       -8.04370
N         -7.77070       17.11670       -7.25020
C         -8.96670       17.76690       -7.23140
C        -10.01760       17.29390       -6.39110
C        -11.06060       18.04430       -5.94480
C        -12.13430       17.58090       -5.13860
N        -12.31900       16.26880       -4.77080
C        -13.44740       16.14850       -4.03030
C        -14.00790       17.40170       -3.89430
C        -13.19160       18.30320       -4.58820
C         -8.83610       18.89120       -8.08980
C         -7.51280       18.89040       -8.56270
C         -9.87200       19.78960       -8.52180
C        -11.22020       19.52170       -8.64340
C        -11.88660       20.66890       -9.15720
C        -10.84290       21.69230       -9.35500
C         -9.64600       21.14810       -8.98370
C        -11.04500       23.00350       -9.82280
N        -11.19320       24.08340      -10.20230
C        -13.23870       20.79880       -9.42580
C        -13.91160       21.90000      -10.01430
C        -15.25720       21.59420      -10.15250
C        -15.46360       20.25560       -9.61630
C        -14.27210       19.77030       -9.16990
C        -14.07920       18.52950       -8.53350
N        -13.95280       17.51600       -7.99580
C        -16.30090       22.38160      -10.70680
C        -16.16060       23.68180      -11.09600
C        -17.20410       24.45610      -11.66400
N        -17.03750       25.79740      -11.92490
C        -18.16550       26.33630      -12.46980
C        -18.30360       27.72560      -12.72580
C        -17.31330       28.64890      -12.58260
C        -17.48560       30.04370      -12.81610
N        -16.44340       30.92780      -12.65980
C        -16.85580       32.19090      -12.93460
C        -18.18980       32.13700      -13.27700
C        -18.59130       30.79570      -13.20530
C        -19.10360       25.27610      -12.59960
C        -18.49130       24.12400      -12.07530
C        -20.41770       25.30030      -13.17680
C        -21.39330       24.34280      -12.97890
C        -22.54230       24.66580      -13.75550
C        -22.20920       25.90950      -14.47380
C        -20.94160       26.27410      -14.11950
C        -23.03380       26.60400      -15.37780
N        -23.68760       27.19790      -16.12070
C        -23.72580       23.95480      -13.85590
C        -24.86050       24.25510      -14.65290
C        -25.81390       23.26130      -14.49320
C        -25.28120       22.28710      -13.54760
C        -24.03990       22.68740      -13.15860
C        -23.21030       22.00100      -12.25070
N        -22.55600       21.41360      -11.50370
C        -27.07070       23.20000      -15.14800
C        -27.98450       22.19660      -14.99580
C        -29.23220       22.12430      -15.66070
N        -29.68640       23.06060      -16.55630
C        -30.91800       22.71210      -17.03240
C        -31.65820       23.47720      -17.97970
C        -31.24980       24.65140      -18.52580
C        -31.98510       25.42100      -19.47530
N        -33.21770       25.06100      -19.96580
C        -33.65780       25.99240      -20.85030
C        -32.70110       26.97860      -20.94260
C        -31.64930       26.62630      -20.08280
C        -31.26730       21.50410      -16.41430
C        -30.22770       21.14150      -15.56830
H         12.24880        4.48780       -4.74760
H          9.82410        4.75350       -3.71120
H         12.49840        6.17860       -6.79520
H          7.93060        8.28150       -6.66900
H          5.23200        6.85560       -3.58510
H          4.27330        8.70170       -5.17310
H          6.23650        9.69200       -7.33230
H          5.28920       11.40380       -8.80280
H          2.24250       13.47870       -9.68920
H          5.18340       12.86690      -10.34310
H          2.14280       15.10460      -11.15270
H          2.42950       16.51350      -13.16300
H          4.89420       16.00700      -14.18240
H          5.99340       14.13890      -12.59100
H          2.52550       10.18640       -5.88740
H          0.97190       14.11280       -8.40350
H          0.15710       10.59020       -6.01210
H         -3.60690       13.97810       -6.57540
H         -2.84920       17.10210       -9.49250
H         -5.60360       15.60900       -7.01620
H         -4.93720       17.93050       -8.93350
H         -7.56880       16.29410       -6.70480
H         -9.91440       16.26390       -6.05580
H        -11.10580       19.09870       -6.19710
H        -11.73590       15.50040       -5.06010
H        -13.77160       15.19100       -3.65440
H        -14.91160       17.63580       -3.35580
H        -13.34260       19.36550       -4.68910
H         -7.08290       19.60200       -9.24890
H        -11.69550       18.57640       -8.44390
H         -8.68660       21.64290       -8.99290
H        -13.43270       22.81270      -10.32900
H        -16.41960       19.75570       -9.57450
H        -17.27050       21.90200      -10.80760
H        -15.20740       24.18520      -10.96160
H        -16.20650       26.31390      -11.68610
H        -19.28630       28.05930      -13.03650
H        -16.31680       28.33920      -12.27620
H        -15.51080       30.66890      -12.38190
H        -16.18040       33.02880      -12.86820
H        -18.80820       32.97670      -13.54970
H        -19.57690       30.41240      -13.41290
H        -18.92890       23.14020      -12.03480
H        -21.31410       23.49000      -12.32550
H        -20.40040       27.11900      -14.51530
H        -24.95950       25.11760      -15.29150
H        -25.79360       21.39700      -13.21560
H        -27.29400       24.02330      -15.82290
H        -27.77230       21.37050      -14.32450
H        -29.17570       23.88440      -16.82970
H        -32.61840       23.05270      -18.25890
H        -30.29000       25.07450      -18.24280
H        -33.72200       24.22890      -19.70730
H        -34.60990       25.88790      -21.34570
H        -32.75490       27.85820      -21.56340
H        -30.74100       27.18210      -19.91560
H        -32.18640       20.96500      -16.57860
H        -30.17760       20.26400      -14.94400
