158
630_425_01010101.out	Energy:   -4124.8021192
C         -9.09260       -8.95410      -10.42570
C         -8.94550       -7.68990      -10.86480
C         -9.46990       -6.78650       -9.83140
C         -9.88990       -7.66850       -8.72320
C         -9.66640       -8.93870       -9.10040
C        -10.37260       -7.31830       -7.44100
N        -10.76930       -7.03810       -6.38660
C         -9.57470       -5.44130       -9.92370
C        -10.25840       -4.59140       -8.94790
C        -10.26100       -3.30940       -9.37380
C         -9.55160       -3.29200      -10.65620
C         -9.13750       -4.53150      -10.99160
C         -8.39560       -4.83770      -12.16560
N         -7.78880       -5.08080      -13.13090
C        -11.02220       -2.24050       -8.73630
C        -11.48740       -2.28540       -7.47150
C        -12.51430       -1.38900       -6.89990
C        -12.28480       -0.47340       -5.84310
O        -11.02040       -0.38350       -5.31210
C        -10.24430        0.68710       -5.85900
C         -9.25480        1.10090       -4.77670
C        -13.37040        0.16890       -5.18960
C        -14.67300       -0.11490       -5.64000
C        -14.90520       -1.00560       -6.68590
C        -13.83420       -1.63200       -7.31530
C        -13.25450        1.10970       -4.04940
C        -14.00730        1.06110       -2.91950
C        -13.69060        2.23300       -2.08280
C        -12.61440        2.93140       -2.79360
C        -12.42500        2.29990       -3.95990
C        -11.87700        4.07860       -2.42180
N        -11.26130        5.01810       -2.12850
C        -14.31920        2.62830       -0.95300
C        -14.00710        3.84830       -0.20500
C        -14.87410        3.99090        0.81730
C        -15.77170        2.83950        0.78100
C        -15.45770        2.02800       -0.24900
C        -16.16800        0.84860       -0.56570
N        -16.76210       -0.11550       -0.83020
C        -14.82670        5.14790        1.69780
C        -15.68500        5.38860        2.70740
C        -15.76050        6.56040        3.64020
C        -16.61100        6.70780        4.79390
O        -17.54710        5.81690        5.28110
C        -17.66710        4.50300        4.76320
C        -18.68510        3.69820        5.54530
C        -16.57350        7.92250        5.56810
C        -15.70700        8.95690        5.16580
C        -14.90490        8.83310        4.04440
C        -14.93330        7.65770        3.30360
C        -17.37110        8.21350        6.80440
C        -17.64590        7.36330        7.82630
C        -18.29380        8.11250        8.93500
C        -18.34350        9.42950        8.48680
C        -17.84160        9.52770        7.24690
C        -18.73250       10.63160        9.33180
N        -19.05530       11.62880       10.03280
C        -18.70890        7.78470       10.16430
C        -19.31050        8.47560       11.31740
C        -19.37770        7.61310       12.36540
C        -18.89050        6.34450       11.90240
C        -18.53550        6.49220       10.62440
C        -18.20350        5.26990        9.78410
N        -17.92810        4.25590        9.08690
C        -19.84770        7.86060       13.70290
C        -21.13200        8.02770       14.06360
C        -21.56410        8.53100       15.39340
C        -20.79340        9.41520       16.18920
O        -19.60230        9.89300       15.70050
C        -19.72790       11.06820       14.87090
C        -20.77760       11.09190       13.75760
C        -21.21070        9.77600       17.48650
C        -22.50570        9.42700       17.89380
C        -23.33840        8.68940       17.05380
C        -22.85890        8.21700       15.82930
C        -20.32010       10.35060       18.50670
C        -20.35850       11.61600       18.98390
C        -19.43180       11.70930       20.12570
C        -18.86930       10.35800       20.27730
C        -19.39780        9.57790       19.33010
C        -18.05090        9.84160       21.32440
N        -17.40530        9.40610       22.17910
C        -19.21190       12.79270       20.90540
C        -18.22160       12.85310       21.97010
C        -18.37160       13.99320       22.67740
C        -19.40170       14.77580       22.00440
C        -19.88720       14.09240       20.94800
C        -20.92640       14.55830       20.11410
N        -21.78760       14.93880       19.43540
C        -17.57870       14.32930       23.84920
C        -16.95990       13.36940       24.56230
C        -16.11920       13.40900       25.76650
C        -15.77670       12.23850       26.48930
O        -16.20070       10.94430       26.26940
C        -17.58240       10.69520       26.00100
C        -17.88310        9.21200       26.16770
C        -14.78060       12.31470       27.47760
C        -14.14720       13.52160       27.77840
C        -14.50620       14.67660       27.09630
C        -15.48400       14.62010       26.10180
H         -8.83530       -9.80240      -10.95400
H         -8.53630       -7.40530      -11.76850
H         -9.87290       -9.77420       -8.53100
H        -10.67680       -4.92260       -8.06460
H         -9.39070       -2.44630      -11.22540
H        -11.21800       -1.39250       -9.29100
H        -11.09250       -3.00770       -6.84900
H        -10.87840        1.51020       -6.11460
H         -9.73740        0.38140       -6.75040
H         -9.79000        1.40060       -3.89990
H         -8.66180        1.91870       -5.12950
H         -8.61790        0.27420       -4.54070
H        -15.47530        0.34770       -5.18480
H        -15.87080       -1.20050       -6.99350
H        -14.01140       -2.28270       -8.09650
H        -14.68990        0.32360       -2.68500
H        -11.77610        2.61660       -4.69720
H        -13.23890        4.50060       -0.42720
H        -16.53900        2.67060        1.45010
H        -14.07680        5.83830        1.53630
H        -16.39690        4.65760        2.86220
H        -16.71630        4.01590        4.82280
H        -17.99400        4.56760        3.74640
H        -18.37300        3.62390        6.56600
H        -18.76430        2.71770        5.12420
H        -19.63700        4.18470        5.49790
H        -15.66900        9.82690        5.71950
H        -14.28850        9.61030        3.75980
H        -14.32550        7.58210        2.47300
H        -17.43710        6.35270        7.83270
H        -17.79440       10.39560        6.69060
H        -19.62970        9.45700       11.32790
H        -18.82650        5.47650       12.45680
H        -19.13750        7.91450       14.44980
H        -21.86290        7.79180       13.37440
H        -18.77690       11.22510       14.40630
H        -20.06360       11.82310       15.55090
H        -20.52820       10.36120       13.01680
H        -20.79890       12.06260       13.30810
H        -21.73950       10.86830       14.16950
H        -22.84570        9.71880       18.82350
H        -24.31090        8.49170       17.33690
H        -23.46640        7.62890       15.23760
H        -20.93780       12.38470       18.61180
H        -19.18460        8.57650       19.20040
H        -17.50920       12.13020       22.15720
H        -19.71380       15.71580       22.29440
H        -17.48920       15.31610       24.13790
H        -17.10470       12.41810       24.18930
H        -17.80830       10.99260       24.99830
H        -18.18150       11.25570       26.68790
H        -17.28580        8.64770       25.48230
H        -18.91910        9.03350       25.96860
H        -17.65570        8.91230       27.16940
H        -14.51180       11.46100       27.99130
H        -13.41500       13.55540       28.50490
H        -14.05120       15.57450       27.32410
H        -15.74690       15.48380       25.60180
