194
630_987_01010101.out	Energy:   -4881.0190263
C         -2.11610       -2.45740       -2.15900
C         -1.50640       -1.29020       -1.88100
C         -2.49800       -0.21860       -2.01590
C         -3.75570       -0.88670       -2.40480
C         -3.50130       -2.20750       -2.47960
C         -5.02940       -0.32310       -2.65670
N         -6.07720        0.12800       -2.86490
C         -2.26910        1.09970       -1.80000
C         -3.26550        2.16650       -1.91810
C         -2.69790        3.33990       -1.57350
C         -1.29350        3.08520       -1.28110
C         -1.02330        1.77400       -1.40320
C          0.26330        1.22370       -1.19530
N          1.32210        0.78040       -1.01620
C         -3.40720        4.59690       -1.60840
C         -3.12120        5.63640       -0.80940
C         -3.88700        6.89300       -0.84490
C         -5.01790        6.97500       -0.02420
C         -5.76950        8.13760       -0.00350
C         -5.39890        9.21480       -0.81340
C         -4.27560        9.15130       -1.64860
C         -3.49860        7.97560       -1.65670
N         -2.39520        7.90710       -2.43250
C         -2.06200        8.96940       -3.21240
C         -0.79350        8.84180       -4.02210
C         -0.09080        7.49680       -3.83790
C         -2.84920       10.11780       -3.22520
C         -2.54890       11.30860       -4.10550
C         -3.54140       12.46130       -3.94920
N         -3.94520       10.20300       -2.43360
C         -6.23170       10.41260       -0.77000
C         -7.29420       10.59390       -1.57850
C         -7.88440       11.88410       -1.24970
C         -7.05790       12.45090       -0.16460
C         -6.08930       11.56340        0.10030
C         -7.18490       13.68790        0.51130
N         -7.27390       14.69510        1.07200
C         -8.97990       12.40350       -1.84510
C         -9.58640       13.67290       -1.48600
C        -10.65940       13.87400       -2.27070
C        -10.81020       12.72740       -3.14790
C         -9.81340       11.86150       -2.92550
C         -9.64590       10.67020       -3.66630
N         -9.52290        9.69590       -4.28670
C        -11.52260       15.00930       -2.15480
C        -11.09060       16.22490       -1.78320
C        -11.96550       17.39870       -1.68290
C        -13.07400       17.47320       -2.53820
C        -13.92210       18.55430       -2.47520
C        -13.64580       19.58160       -1.57210
C        -12.51610       19.55060       -0.73340
C        -11.65140       18.44140       -0.78710
N        -10.54810       18.39210        0.01180
C        -10.29500       19.41490        0.87360
C         -9.11180       19.19920        1.79160
C         -7.74820       19.65130        1.27730
C        -11.16010       20.50760        0.91890
C        -11.01320       21.70280        1.81880
C        -10.22260       22.82160        1.15830
N        -12.25480       20.57180        0.11130
C        -14.58450       20.69790       -1.55280
C        -15.68240       20.72190       -0.76790
C        -16.41240       21.95240       -1.06050
C        -15.61620       22.64690       -2.08720
C        -14.54080       21.89910       -2.36850
C        -15.87740       24.02870       -2.66410
N        -16.09410       25.17510       -3.14260
C        -17.57900       22.32110       -0.49610
C        -18.33800       23.50980       -0.86410
C        -19.46170       23.52960       -0.13100
C        -19.47300       22.38720        0.75540
C        -18.36820       21.65590        0.55270
C        -18.09540       20.49090        1.29680
N        -17.91820       19.53440        1.93580
C        -20.45350       24.54090       -0.26740
C        -21.72530       24.24570       -0.56430
C        -22.75060       25.28290       -0.70200
C        -22.63750       26.42970        0.09930
C        -23.57260       27.43330        0.00910
C        -24.64350       27.29490       -0.87420
C        -24.77850       26.13450       -1.67050
C        -23.83290       25.09850       -1.58310
N        -23.97460       23.96970       -2.34270
C        -25.04580       23.85610       -3.17840
C        -25.06890       22.63000       -4.05940
C        -25.73410       21.39150       -3.47270
C        -25.98390       24.87730       -3.24180
C        -27.22450       24.89210       -4.08660
C        -26.97110       25.41530       -5.49070
N        -25.81960       26.00740       -2.51560
C        -25.61110       28.40250       -0.92100
C        -26.92800       28.26380       -1.18270
C        -27.54510       29.58050       -1.19710
C        -26.47460       30.52270       -0.85210
C        -25.34630       29.81670       -0.69240
C        -26.53620       31.91900       -0.67030
N        -26.56020       33.07040       -0.51330
C        -28.83220       29.81670       -1.51070
C        -29.43020       31.14230       -1.60850
C        -30.71870       30.99660       -1.96350
C        -30.99600       29.58740       -2.13920
C        -29.90240       28.86820       -1.85000
C        -29.93050       27.45640       -1.83020
N        -30.03960       26.30080       -1.81110
C        -31.60530       32.09540       -2.18010
C        -32.92510       32.03660       -1.95240
C        -33.83310       33.17910       -2.15770
C        -35.14240       32.87150       -2.55430
C        -36.05780       33.89020       -2.76850
C        -35.66200       35.21310       -2.58320
C        -34.37410       35.54310       -2.18010
C        -33.44200       34.51730       -1.94340
N        -32.19750       34.83950       -1.52060
C        -31.85080       36.13530       -1.35870
C        -30.44650       36.40220       -0.86950
C        -29.62160       35.13720       -0.62720
C        -32.77990       37.13610       -1.62130
C        -32.49330       38.59930       -1.43550
C        -32.84290       39.05840       -0.02870
N        -34.04610       36.83900       -2.02320
H         -1.66440       -3.38520       -2.14510
H         -0.51540       -1.17060       -1.61900
H         -4.19290       -2.93190       -2.72860
H         -4.24510        2.04040       -2.21710
H         -0.60510        3.80750       -1.01810
H         -4.17810        4.70200       -2.28640
H         -2.33560        5.55170       -0.14560
H         -5.29060        6.17170        0.56340
H         -6.59880        8.20850        0.60670
H         -0.12140        9.61960       -3.72500
H         -1.06730        8.91740       -5.05370
H          0.19970        7.38340       -2.81440
H          0.77800        7.46000       -4.46140
H         -0.75820        6.70560       -4.10900
H         -2.56520       10.98600       -5.12550
H         -1.59110       11.68120       -3.80740
H         -4.51800       12.13260       -4.23760
H         -3.24120       13.27750       -4.57260
H         -3.55960       12.78030       -2.92800
H         -7.62940        9.93700       -2.30040
H         -5.35410       11.68110        0.81490
H         -9.24980       14.31410       -0.75080
H        -11.56830       12.59940       -3.83630
H        -12.52520       14.88780       -2.36690
H        -10.09050       16.33990       -1.55610
H        -13.25400       16.71590       -3.21580
H        -14.75130       18.60500       -3.08750
H         -9.04870       18.15100        1.99690
H         -9.30570       19.81370        2.64580
H         -7.48370       19.07610        0.41470
H         -7.01310       19.50700        2.04130
H         -7.79160       20.68780        1.01530
H        -10.50590       21.40220        2.71170
H        -11.99280       22.07470        2.03570
H         -9.23630       22.47490        0.93040
H        -10.16200       23.65680        1.82430
H        -10.71320       23.12010        0.25550
H        -15.95680       19.99990       -0.08350
H        -13.80410       22.13690       -3.05100
H        -18.05970       24.21350       -1.56580
H        -20.21590       22.16900        1.43770
H        -20.18530       25.52850       -0.13390
H        -21.99120       23.25790       -0.70030
H        -21.84900       26.51980        0.75900
H        -23.48320       28.28180        0.58980
H        -24.05580       22.37670       -4.29260
H        -25.66280       22.89880       -4.90790
H        -25.18670       21.06610       -2.61290
H        -25.74470       20.61150       -4.20510
H        -26.73830       21.62710       -3.18800
H        -27.95290       25.51780       -3.61440
H        -27.56800       23.88260       -4.17470
H        -26.62530       26.42650       -5.43760
H        -27.87970       25.37820       -6.05460
H        -26.22980       24.80950       -5.96860
H        -27.41690       27.36970       -1.34570
H        -24.42730       30.21550       -0.44450
H        -28.94780       32.03800       -1.43520
H        -31.90100       29.19450       -2.44200
H        -31.20880       32.98150       -2.53050
H        -33.32530       31.14670       -1.61640
H        -35.42430       31.88760       -2.68670
H        -37.02260       33.67100       -3.06220
H        -36.34450       35.96900       -2.75000
H        -30.50810       36.94520        0.05040
H        -29.94940       36.95320       -1.64050
H        -30.08340       34.55190        0.14040
H        -28.63280       35.40930       -0.32200
H        -29.57160       34.56560       -1.53030
H        -33.07320       39.15970       -2.13880
H        -31.44720       38.76030       -1.59220
H        -33.88710       38.90510        0.14730
H        -32.61270       40.09820        0.07460
H        -32.27490       38.49500        0.68180
