194
630_521_01010101.out	Energy:   -4714.0537913
C        -12.74280       -5.70680        2.34510
C        -12.31500       -5.22210        1.16730
C        -11.46680       -4.05280        1.43210
C        -11.39410       -3.95280        2.89930
C        -12.18030       -4.91610        3.41400
C        -10.62690       -3.07050        3.69200
N         -9.99050       -2.36590        4.35900
C        -10.88760       -3.28360        0.48280
C         -9.95960       -2.16900        0.69690
C         -9.51520       -1.74850       -0.50690
C        -10.20930       -2.50500       -1.53400
C        -11.01710       -3.41040       -0.97410
C        -11.83620       -4.26630       -1.73790
N        -12.49820       -4.96770       -2.38240
C         -8.50740       -0.74510       -0.71460
C         -8.08560       -0.38500       -1.93510
N         -7.13330        0.54270       -2.28160
C         -6.77580        0.86170       -3.65820
N         -5.98160        2.08140       -3.73300
C         -6.33800        2.77830       -2.48210
C         -5.15680        3.62270       -2.00780
C         -5.29810        3.93480       -0.51610
C         -5.38560        2.65120        0.37120
C         -5.65900        1.38420       -0.45330
C         -6.76690        1.69460       -1.45440
N         -4.09520        2.57460        1.06080
C         -3.37520        3.80500        0.75800
N         -4.17600        4.74790       -0.01880
C         -3.80030        1.80410        2.16200
C         -2.58460        1.53850        2.68110
C         -2.74400        0.71530        3.88290
C         -4.19450        0.55370        4.04510
C         -4.79510        1.17440        3.01450
C         -4.90120       -0.08270        5.09440
N         -5.47630       -0.59340        5.95720
C         -1.73860        0.23500        4.64760
C         -1.88560       -0.56160        5.86830
C         -0.66000       -0.81130        6.37110
C          0.32640       -0.21550        5.48270
C         -0.29020        0.39310        4.45620
C          0.39820        1.01440        3.38840
N          0.96170        1.52060        2.51080
C         -0.42450       -1.55700        7.57910
C          0.21110       -1.03960        8.63850
N          0.53900       -1.64230        9.83380
C          0.25850       -3.01550       10.20900
N          0.97960       -3.40470       11.41810
C          2.05910       -2.40060       11.51990
C          2.32090       -2.08890       12.99440
C          3.03640       -0.74320       13.18490
C          2.36880        0.44280       12.40780
C          1.14710       -0.01840       11.61240
C          1.60610       -1.15820       10.71000
N          2.06490        1.45560       13.42720
C          2.75120        1.02580       14.64000
N          3.07790       -0.39620       14.62470
C          1.76800        2.78290       13.18730
C          1.75660        3.80620       14.06880
C          1.40290        5.04370       13.36990
C          1.17290        4.64710       11.97800
C          1.40820        3.32800       11.88790
C          0.82580        5.44820       10.86670
N          0.54660        6.09550        9.94510
C          1.34770        6.27340       13.92360
C          0.98120        7.50870       13.22990
C          1.11870        8.54150       14.08510
C          1.52280        8.00750       15.37590
C          1.65770        6.67430       15.30150
C          2.05140        5.87850       16.39820
N          2.37990        5.23520       17.30860
C          0.81260        9.90430       13.74080
C          1.38520       10.96080       14.33150
N          1.17850       12.29510       14.06440
C         -0.05310       12.86180       13.55470
N         -0.04270       14.32150       13.57840
C          1.14330       14.67320       14.39080
C          1.93330       15.78050       13.67980
C          3.33690       15.98060       14.28260
C          4.08260       14.64530       14.60040
C          3.36110       13.45380       13.98130
C          1.97640       13.38080       14.62290
N          5.43970       14.81230       14.06650
C          5.52420       16.17720       13.57390
N          4.19910       16.76040       13.35840
C          6.53340       14.01070       14.31870
C          7.79110       14.10470       13.82960
C          8.61770       13.04090       14.41550
C          7.70290       12.27300       15.27000
C          6.49670       12.85480       15.20580
C          7.94970       11.06930       15.97300
N          8.14220       10.08290       16.55170
C          9.94280       12.85280       14.22520
C         10.78130       11.94070       15.00770
C         12.05990       12.07000       14.60420
C         12.09440       13.02250       13.50680
C         10.86280       13.52070       13.29450
C         10.57960       14.49720       12.31140
N         10.37590       15.30880       11.50960
C         13.16180       11.45410       15.29420
C         14.04090       10.60430       14.74960
N         15.12550       10.00760       15.36490
C         15.22780        9.71830       16.78830
N         15.84440        8.40800       17.00930
C         16.71470        8.27130       15.82040
C         18.14600        8.71550       16.13350
C         18.99700        8.52970       14.87950
C         18.33650        9.05790       13.59380
C         17.10320        9.92010       13.87160
C         16.06950        9.11440       14.67490
N         19.40890        9.79860       12.90180
C         20.63840        9.36670       13.54310
N         20.27670        9.24750       14.94190
H        -13.37290       -6.51510        2.46640
H        -12.54310       -5.60560        0.23670
H        -12.35460       -5.06670        4.42000
H         -9.69170       -1.77340        1.61160
H        -10.09510       -2.36370       -2.54990
H         -8.09160       -0.28320        0.10930
H         -8.53920       -0.87220       -2.72370
H         -7.67140        0.99400       -4.22860
H         -6.19160        0.05520       -4.04960
H         -6.23720        2.63720       -4.54930
H         -7.15260        3.45840       -2.61900
H         -5.13230        4.53870       -2.56020
H         -4.25020        3.07700       -2.16690
H         -6.21610        4.47860       -0.43670
H         -6.20550        2.71150        1.05610
H         -5.96840        0.59070        0.19440
H         -4.77140        1.08040       -0.96790
H         -7.58170        2.01150       -0.83740
H         -2.49680        3.55920        0.19850
H         -3.13210        4.27540        1.68780
H         -3.63460        5.13150       -0.79340
H         -1.68490        1.86340        2.29370
H         -5.81390        1.19990        2.85240
H         -2.77910       -0.87890        6.27560
H          1.34840       -0.25480        5.62080
H         -0.75950       -2.53170        7.63130
H          0.49490       -0.05160        8.54700
H          0.55250       -3.66060        9.40760
H         -0.79000       -3.09950       10.40500
H          1.36450       -4.34470       11.32550
H          2.98410       -2.75430       11.11480
H          2.93080       -2.86490       13.40760
H          1.37480       -2.03100       13.49080
H          4.01990       -0.87390       12.78420
H          3.01540        0.85400       11.66100
H          0.76800        0.78860       11.02080
H          0.36510       -0.34140       12.26730
H          2.41300       -0.73800       10.14680
H          2.11870        1.22330       15.48010
H          3.67070        1.56940       14.70250
H          2.38880       -0.93460       15.14990
H          1.96450        3.72830       15.07670
H          1.34270        2.77750       11.01750
H          0.66920        7.57770       12.24860
H          1.68250        8.57140       16.22530
H          0.11520       10.07680       12.99990
H          2.06480       10.74860       15.07850
H         -0.86680       12.51370       14.15610
H         -0.15930       12.55160       12.53620
H         -0.89420       14.68070       14.01000
H          0.86660       15.05920       15.34960
H          1.38950       16.69830       13.76320
H          2.05590       15.48880       12.65770
H          3.17020       16.50220       15.20190
H          4.11090       14.44360       15.65090
H          3.90440       12.55330       14.17860
H          3.28250       13.56680       12.92020
H          2.16950       13.23370       15.66500
H          6.05800       16.17820       12.64660
H          6.03090       16.76560       14.31010
H          3.89970       16.64270       12.39050
H          8.11810       14.81150       13.15240
H          5.65920       12.52960       15.71350
H         10.44680       11.30320       15.74710
H         12.93800       13.27850       12.97030
H         13.28460       11.68670       16.29210
H         13.89190       10.36740       13.75630
H         14.24810        9.72200       17.21840
H         15.83890       10.46700       17.24760
H         15.14220        7.66890       17.04130
H         16.78820        7.24820       15.51580
H         18.54220        8.12070       16.92990
H         18.15350        9.74280       16.43250
H         19.12530        7.46790       14.84800
H         17.95120        8.26270       12.99030
H         16.66920       10.22750       12.94310
H         17.39560       10.77980       14.43750
H         15.59640        8.48450       13.95070
H         19.28010       10.80420       13.01410
H         21.41280       10.09300       13.41030
H         21.01870        8.45350       13.13520
H         20.16400       10.16510       15.37290
