130
630_869_01010101.out	Energy:   -5995.0414623
C          5.38970        2.01170        7.99260
C          4.04090        1.99950        7.89430
C          3.54860        3.35870        8.05030
C          4.74990        4.19450        8.25640
C          5.83720        3.37490        8.21780
C          4.76710        5.58870        8.45550
N          4.79930        6.72920        8.62130
C          2.24950        3.78480        8.00860
C          1.76660        5.13170        8.15350
C          0.39580        5.13640        8.03330
C         -0.03950        3.75870        7.80810
C          1.04800        2.94610        7.79090
C          1.02800        1.54990        7.59480
N          0.98010        0.40970        7.43310
C         -0.50640        6.24010        8.09000
C         -0.13600        7.53500        8.28110
C         -1.04310        8.62550        8.30650
S         -2.76690        8.47480        8.11070
C         -3.03680       10.19730        8.23620
C         -1.82440       10.84090        8.42640
C         -0.72440        9.96120        8.46680
C          0.49610       10.75330        8.67360
O          1.63190       10.41420        8.76510
O          0.07660       12.07020        8.75200
C         -1.28860       12.20680        8.61370
O         -1.83980       13.26140        8.65170
C         -4.35540       10.71610        8.12690
C         -5.51150        9.97920        7.97670
C         -6.62530       10.86970        7.86930
C         -6.06470       12.23500        7.97450
C         -4.71980       12.13250        8.13480
C         -6.80460       13.43550        7.94400
N         -7.40010       14.42190        7.92790
C         -7.95120       10.53910        7.69290
C         -9.05100       11.42970        7.49720
C        -10.21090       10.69450        7.35190
C         -9.86110        9.28050        7.47250
C         -8.51980        9.17220        7.66150
C         -7.79790        7.97180        7.81850
N         -7.22140        6.98120        7.94340
C        -11.53430       11.15820        7.10800
C        -11.86190       12.45790        6.86300
C        -13.17670       12.91310        6.59570
S        -14.59710       11.90550        6.63900
C        -15.66610       13.21410        6.19250
C        -14.92790       14.37460        6.02040
C        -13.54950       14.19960        6.25060
C        -12.87560       15.48800        6.03580
O        -11.72650       15.78210        6.11500
O        -13.87760       16.37960        5.69270
C        -15.12620       15.79540        5.66060
O        -16.11490       16.39820        5.38310
C        -17.06180       12.97690        6.06980
C        -17.71130       11.78780        6.33030
C        -19.11190       11.95680        6.09780
C        -19.28320       13.35780        5.65650
C        -18.06230       13.95510        5.64870
C        -20.50400       13.97120        5.30760
N        -21.49760       14.47890        5.01820
C        -20.11050       11.02240        6.26570
C        -21.50930       11.19320        6.03720
C        -22.17030       10.02220        6.35030
C        -21.17200        9.05000        6.79500
C        -19.94440        9.63010        6.74400
C        -18.72310        9.01650        7.09010
N        -17.72910        8.50290        7.36830
C        -23.57250        9.81720        6.25030
C        -24.22800        8.67630        6.60270
C        -25.63030        8.50650        6.48620
S        -26.70880        9.71350        5.83810
C        -28.12410        8.71510        6.05590
C        -27.75100        7.50290        6.61120
C        -26.36680        7.39290        6.84490
C        -26.10060        6.06080        7.40920
O        -25.07580        5.56140        7.75130
O        -27.32760        5.43100        7.47920
C        -28.36420        6.22200        7.01500
O        -29.49410        5.85490        6.97390
C        -29.40370        9.19590        5.66320
C        -30.63790        8.61230        5.85830
C        -31.64280        9.44410        5.26400
C        -30.92850       10.59910        4.67980
C        -29.60280       10.44660        4.93820
C        -31.51100       11.68560        3.99600
N        -31.96490       12.58250        3.43140
C        -33.00160        9.22950        5.22610
C        -33.97950       10.01120        4.53300
C        -35.22300        9.44760        4.71560
C        -35.06050        8.27210        5.57530
C        -33.74710        8.12930        5.88380
C        -33.20050        7.14310        6.73170
N        -32.79500        6.33900        7.45010
C        -36.48330        9.86660        4.19590
C        -36.64890       10.95670        3.39930
C        -37.89430       11.39350        2.86110
S        -37.91500       12.81420        1.84770
C        -39.61070       12.72540        1.59400
C        -40.13850       11.65860        2.25470
C        -39.17980       10.89730        2.97500
C        -39.90410        9.79430        3.62730
O        -39.51570        8.91220        4.32890
O        -41.23200        9.93910        3.27560
C        -41.46050       11.02840        2.45690
O        -42.53270       11.32550        2.04300
H          6.05420        1.16400        7.92000
H          3.41140        1.14120        7.72790
H          6.86870        3.67130        8.33310
H          2.39810        5.98780        8.32570
H         -1.06910        3.46150        7.67740
H         -1.56110        6.01130        7.95930
H          0.90880        7.80090        8.41590
H         -5.56960        8.90400        7.93080
H         -4.02280       12.94650        8.24850
H         -8.96880       12.50360        7.46330
H        -10.57200        8.47080        7.40900
H        -12.32140       10.40850        7.09720
H        -11.09460       13.22690        6.83830
H        -17.24230       10.87620        6.66250
H        -17.84910       14.97610        5.37760
H        -21.97250       12.09820        5.67990
H        -21.38760        8.03940        7.10590
H        -24.15240       10.65220        5.86440
H        -23.68980        7.82300        7.00520
H        -30.82920        7.67770        6.35990
H        -28.80650       11.11810        4.65560
H        -33.75440       10.88470        3.94410
H        -35.87450        7.64260        5.90030
H        -37.34020        9.25980        4.46650
H        -35.78870       11.56260        3.13080
H        -40.11590       13.45380        0.98160
