146
630_35_01010101.out	Energy:   -4267.5350470
C         -1.12110       10.21520       15.67410
C         -1.46350       11.26800       14.88340
C         -1.84140       10.76830       13.58520
C         -1.69680        9.30600       13.65730
C         -1.26390        8.99290       14.91710
C         -1.95560        8.39270       12.61940
N         -2.16330        7.63220       11.77660
C         -2.25790       11.49970       12.48480
C         -2.63040       11.00670       11.21610
C         -2.98740       12.08090       10.37970
C         -2.83030       13.30160       11.16180
C         -2.40090       12.97230       12.40860
C         -2.14060       13.89130       13.44680
N         -1.93720       14.66900       14.27300
C         -3.41400       11.96540        9.05950
C         -3.75310       13.05140        8.24630
C         -4.20210       13.04070        6.94410
C         -4.52240       12.00480        5.99570
C         -4.52090       10.61700        6.13120
C         -4.90510        9.82550        5.05980
C         -5.30420       10.40370        3.85800
C         -5.31850       11.78280        3.70230
C         -4.91920       12.59890        4.75760
C         -4.84910       14.04480        4.86060
C         -4.44300       14.34260        6.26690
O         -4.31350       15.42720        6.78650
C         -5.05380       15.01570        3.91430
C         -5.36940       14.85730        2.51590
C         -5.50300       16.08730        1.92950
C         -5.25920       17.10210        2.98750
C         -4.99090       16.45620        4.15050
C         -5.31260       18.49930        2.80950
N         -5.35630       19.64400        2.67850
C         -5.82180       16.36850        0.56700
C         -5.85590       17.58230       -0.07220
C         -6.24050       17.38770       -1.44610
C         -6.44640       15.95960       -1.61980
C         -6.19700       15.33990       -0.43450
C         -6.29950       13.95360       -0.20170
N         -6.39270       12.81680       -0.02780
C         -6.38200       18.37970       -2.38450
C         -6.79510       18.14140       -3.71890
C         -6.95600       19.09250       -4.68560
C         -7.41330       18.86440       -6.03970
C         -7.78320       17.66880       -6.64600
C         -8.21510       17.68840       -7.96410
C         -8.28260       18.88930       -8.66490
C         -7.91480       20.08930       -8.07170
C         -7.46710       20.09340       -6.75150
C         -7.01990       21.17080       -5.88520
C         -6.70830       20.55410       -4.55640
O         -6.32160       21.12930       -3.56570
C         -6.86100       22.50700       -6.15030
C         -7.09600       23.20210       -7.39240
C         -6.81380       24.53270       -7.24090
C         -6.37130       24.72440       -5.83520
C         -6.40450       23.52270       -5.20450
C         -5.99050       25.95370       -5.26060
N         -5.67920       26.95640       -4.78410
C         -6.91380       25.55440       -8.23340
C         -6.54740       26.87410       -8.14360
C         -6.81650       27.52510       -9.39930
C         -7.38900       26.51810      -10.27570
C         -7.45050       25.33890       -9.60080
C         -7.95040       24.12730      -10.11870
N         -8.36150       23.14430      -10.56160
C         -6.57820       28.82160       -9.78080
C         -6.02010       29.82410       -8.95180
C         -5.68000       31.09740       -9.30870
C         -5.67400       31.82300      -10.56170
C         -5.89470       31.38500      -11.86450
C         -5.79030       32.28500      -12.91580
C         -5.44460       33.61180      -12.68130
C         -5.19930       34.06410      -11.39290
C         -5.32260       33.18370      -10.32000
C         -5.09190       33.39040       -8.90250
C         -5.22190       32.05130       -8.25580
O         -5.02770       31.76680       -7.09900
C         -4.85380       34.54690       -8.20540
C         -4.84450       35.90090       -8.69940
C         -4.54340       36.76350       -7.67920
C         -4.35210       35.93980       -6.45680
C         -4.55030       34.63590       -6.77960
C         -4.01330       36.43830       -5.18290
N         -3.73440       36.84190       -4.13920
C         -4.43020       38.18390       -7.75190
C         -4.22710       39.07820       -6.73080
C         -4.18230       40.41250       -7.26760
C         -4.36520       40.28960       -8.70350
C         -4.51550       38.97180       -9.00710
C         -4.70000       38.44450      -10.30120
N         -4.84640       38.01890      -11.36340
C         -4.00190       41.55800       -6.53160
C         -3.96650       42.85910       -7.08480
C         -3.80000       44.04690       -6.43370
C         -3.61110       44.43070       -5.06070
C         -3.52700       43.70020       -3.88050
C         -3.33720       44.36520       -2.67690
C         -3.22810       45.76310       -2.62470
C         -3.30620       46.52100       -3.77070
C         -3.49870       45.87250       -5.00960
C         -3.60780       46.41180       -6.28870
C         -3.79920       45.33030       -7.23910
O         -3.93510       45.38980       -8.44260
H         -0.79320       10.25760       16.70180
H         -1.46030       12.30870       15.16190
H         -1.05900        8.00340       15.29630
H         -2.64260        9.96890       10.92450
H         -3.02730       14.29930       10.80140
H         -3.47280       10.95940        8.65840
H         -3.64690       14.04720        8.67400
H         -4.23140       10.14490        7.06110
H         -4.90270        8.74640        5.16280
H         -5.61300        9.77110        3.03380
H         -5.65180       12.19560        2.75980
H         -5.45590       13.91430        2.00820
H         -4.77910       16.91460        5.10220
H         -5.63300       18.54590        0.35650
H         -6.74510       15.47660       -2.53700
H         -6.17620       19.40180       -2.08490
H         -7.01270       17.11060       -3.99050
H         -7.73780       16.73350       -6.09970
H         -8.50620       16.76420       -8.45000
H         -8.62910       18.89040       -9.69200
H         -7.99120       20.99780       -8.65310
H         -7.42600       22.73790       -8.30270
H         -6.14430       23.33430       -4.17630
H         -6.11590       27.36020       -7.28390
H         -7.70350       26.70000      -11.29180
H         -6.85140       29.08880      -10.79620
H         -5.85590       29.57270       -7.90530
H         -6.13190       30.35090      -12.07820
H         -5.96650       31.94540      -13.93010
H         -5.35250       34.29890      -13.51450
H         -4.89980       35.09360      -11.25060
H         -5.08200       36.18810       -9.70710
H         -4.47670       33.79190       -6.11370
H         -4.12330       38.85030       -5.68230
H         -4.37550       41.10950       -9.40420
H         -3.88120       41.44450       -5.45920
H         -4.08730       42.94260       -8.16380
H         -3.60640       42.62020       -3.87970
H         -3.27160       43.79500       -1.75740
H         -3.08040       46.24470       -1.66460
H         -3.22240       47.60090       -3.73450
H         -3.56170       47.45600       -6.55430
