142
630_468_01010101.out	Energy:   -4628.0371161
C         10.77550        2.32190        5.36800
C          9.66680        1.56030        5.32630
C          9.39620        1.08030        6.68750
C         10.47370        1.64320        7.52230
C         11.26270        2.38500        6.72660
C         10.66470        1.52600        8.91830
N         10.81860        1.42540       10.06450
C          8.37100        0.28180        7.05590
C          8.17800       -0.29210        8.38830
C          7.10960       -1.11320        8.36050
C          6.55360       -1.07840        7.01570
C          7.26470       -0.23900        6.24380
C          6.89050        0.10220        4.92440
N          6.54910        0.38410        3.85160
C          6.72080       -1.93540        9.47930
C          5.47010       -2.37460        9.69920
C          5.08730       -3.24980       10.76310
C          5.90630       -4.20040       11.33300
O          5.24650       -4.88880       12.29220
C          3.98240       -4.37870       12.35140
N          3.17050       -4.97180       13.38140
O          2.05890       -4.48100       13.60370
O          3.64350       -5.94350       13.98520
C          3.81490       -3.37350       11.41060
C          2.67150       -2.55910       11.15490
C          1.39590       -2.94500       11.27740
C          0.26040       -2.08340       11.14590
C         -0.99030       -2.51770       11.39520
C         -1.90060       -1.39710       11.22310
C         -1.07250       -0.24950       10.83930
C          0.19870       -0.67300       10.79990
C         -1.45010        1.08020       10.54390
N         -1.75650        2.17300       10.29750
C         -3.22840       -1.45670       11.41370
C         -4.10810       -0.31400       11.26390
C         -5.35390       -0.70500       11.55840
C         -5.32610       -2.11380       11.91310
C         -4.07330       -2.58410       11.81590
C         -3.71320       -3.92770       12.07860
N         -3.40340       -5.02250       12.31460
C         -6.49380        0.15790       11.58440
C         -6.59030        1.41250       11.12740
C         -7.74810        2.24870       11.13580
C         -7.61780        3.61190       11.33620
O         -8.82060        4.23040       11.24950
C         -9.71990        3.25720       10.95840
N        -11.04920        3.72530       10.79100
O        -11.59690        3.47110        9.71060
O        -11.55400        4.32400       11.74870
C         -9.13990        2.00790       10.85600
C         -9.82530        0.81200       10.44720
C         -9.59890       -0.40760       10.94510
C        -10.11130       -1.67110       10.50840
C         -9.37490       -2.81360       10.52200
C        -10.27410       -3.93960       10.25810
C        -11.58890       -3.32350       10.02040
C        -11.47050       -2.00150       10.18040
C        -12.80300       -3.94500        9.64370
N        -13.79150       -4.43870        9.33780
C         -9.95610       -5.24690       10.30680
C        -10.91250       -6.35380       10.23000
C        -10.24300       -7.51610       10.34640
C         -8.83330       -7.21330       10.53870
C         -8.64720       -5.88470       10.49890
C         -7.37190       -5.28660       10.53370
N         -6.32820       -4.78480       10.54960
C        -10.89590       -8.79840       10.32610
C        -10.29410       -9.90860        9.87400
C        -10.86880      -11.21440        9.81140
C        -12.15800      -11.52560       10.19900
O        -12.41990      -12.84250       10.00780
C        -11.28860      -13.37400        9.48100
N        -11.37130      -14.76280        9.19490
O        -11.11000      -15.10620        8.03480
O        -11.67210      -15.51180       10.13260
C        -10.28540      -12.43790        9.34160
C         -8.96790      -12.69860        8.84500
C         -7.86090      -12.04970        9.24450
C         -6.53440      -12.27900        8.75070
C         -5.58510      -11.31690        8.69920
C         -4.35920      -11.90090        8.15040
C         -4.70760      -13.28850        7.83750
C         -5.96640      -13.51370        8.23820
C         -4.04510      -14.12650        6.93770
N         -3.51500      -14.77540        6.12780
C         -3.16750      -11.29120        7.97750
C         -1.91100      -11.94860        7.60320
C         -0.92910      -11.02460        7.59660
C         -1.51660       -9.73580        7.93470
C         -2.83690       -9.87510        8.14530
C         -3.73020       -8.79900        8.33250
N         -4.49730       -7.93460        8.45670
C          0.44680      -11.32680        7.30290
C          1.16360      -10.68000        6.37040
C          2.51440      -11.00710        6.06680
C          2.87350      -11.95160        5.12960
O          4.22540      -12.05470        5.05870
C          4.72340      -11.17770        5.97400
N          6.14400      -11.15270        6.01990
O          6.68020      -11.45510        7.09320
O          6.73050      -10.84970        4.97290
C          3.72230      -10.49940        6.64100
C          3.82360       -9.48500        7.64400
C          4.77200       -9.37160        8.58270
H         11.20990        2.78810        4.55620
H          9.10570        1.35070        4.48600
H         12.08970        2.91800        7.03820
H          8.76470       -0.09930        9.21510
H          5.73310       -1.61940        6.70090
H          7.45180       -2.20460       10.15620
H          4.73130       -2.05670        9.05250
H          6.88910       -4.36470       11.06440
H          2.84300       -1.58850       10.84900
H          1.21710       -3.94050       11.48250
H         -1.25600       -3.47860       11.66190
H          1.01230       -0.08530       10.55980
H         -3.82310        0.63630       10.97960
H         -6.14760       -2.66990       12.19740
H         -7.34860       -0.23540       12.00830
H         -5.73250        1.82090       10.72420
H         -6.72470        4.09280       11.52600
H        -10.54620        0.90200        9.71430
H         -8.96550       -0.44360       11.75900
H         -8.35850       -2.87680       10.68920
H        -12.23990       -1.32060       10.08290
H        -11.93270       -6.25840       10.10680
H         -8.08940       -7.91360       10.68380
H        -11.86540       -8.86650       10.67310
H         -9.32280       -9.80960        9.53950
H        -12.83250      -10.84570       10.58340
H         -8.86100      -13.43580        8.13090
H         -7.97540      -11.32380        9.96910
H         -5.70450      -10.33600        8.99680
H         -6.45510      -14.42140        8.19020
H         -1.79760      -12.95020        7.38190
H         -0.99630       -8.84720        8.00260
H          0.90670      -12.08040        7.83730
H          0.71430       -9.91030        5.85000
H          2.20970      -12.50200        4.56260
H          3.08660       -8.76260        7.64440
H          5.53500      -10.06470        8.63170
H          4.73970       -8.59120        9.25720
