150
630_206_01010101.out	Energy:   -7448.6483077
C         -1.66470       31.44740        4.47100
C         -2.95830       31.08010        4.47720
C         -3.01120       29.61670        4.54480
C         -1.60350       29.16970        4.57530
C         -0.83080       30.26980        4.52990
C         -1.07820       27.85540        4.63200
N         -0.64230       26.78020        4.67950
C         -4.13750       28.87610        4.57470
C         -4.17290       27.42200        4.65730
C         -5.45500       27.01150        4.67580
C         -6.30250       28.19240        4.60020
C         -5.54190       29.29950        4.54160
C         -6.07560       30.60340        4.46570
N         -6.52630       31.67010        4.40440
C         -5.89210       25.64340        4.77240
C         -5.07730       24.57940        4.87350
C         -5.56270       23.24560        5.00010
S         -7.03230       22.93690        5.83010
C         -6.93780       21.25010        5.59270
C         -5.79730       20.92250        4.87810
C         -4.96720       22.05550        4.60160
S         -3.37450       21.99710        3.81760
C         -2.87010       20.27630        4.04820
C         -3.64710       19.38020        3.11610
O         -3.08100       18.67690        2.27590
C         -5.15580       19.39490        3.24450
O         -5.53570       19.61800        4.59720
C         -7.98270       20.43780        6.10280
C         -8.35050       19.29130        5.49910
C         -9.43660       18.68870        6.26310
C         -9.68950       19.60320        7.38310
C         -8.83080       20.63000        7.26980
C        -10.62730       19.49130        8.43050
N        -11.39420       19.40440        9.29600
C        -10.03030       17.51990        5.95510
C        -11.10080       16.88870        6.72010
C        -11.40970       15.71560        6.13530
C        -10.56710       15.55890        4.95940
C         -9.75050       16.61450        4.83350
C         -8.82750       16.74570        3.77150
N         -8.07470       16.84640        2.89340
C        -12.41650       14.82420        6.64280
C        -12.71580       13.65500        6.06130
C        -13.72600       12.82940        6.60750
S        -15.32060       13.01300        6.02370
C        -15.93420       11.78210        7.04890
C        -14.90530       11.19980        7.77670
C        -13.64440       11.84330        7.57330
S        -12.13220       11.46580        8.41680
C        -12.71350       10.61860        9.90370
C        -13.16440        9.22210        9.55610
O        -12.63530        8.23020       10.06340
C        -14.28070        9.09000        8.54050
O        -15.18240       10.18660        8.64090
C        -17.32460       11.49220        7.01250
C        -17.79980       10.25390        7.25330
C        -19.25330       10.27820        7.14940
C        -19.60190       11.67140        6.82520
C        -18.45610       12.36640        6.73830
C        -20.87710       12.25120        6.62420
N        -21.91790       12.72850        6.45910
C        -20.05530        9.21130        7.33070
C        -21.50000        9.24730        7.26620
C        -21.97990        8.01620        7.52360
C        -20.86080        7.11640        7.75270
C        -19.72620        7.81370        7.62990
C        -18.33080        7.22500        7.75850
N        -17.17310        6.73660        7.86510
C        -23.36990        7.67320        7.52770
C        -24.36440        8.53430        7.25810
C        -25.72360        8.12530        7.20850
S        -26.11710        6.53380        6.69160
C        -27.78450        6.78850        6.87610
C        -28.05440        8.06270        7.33020
C        -26.87340        8.86400        7.45650
S        -26.82790       10.58180        7.90780
C        -28.50240       11.13850        7.51730
C        -29.46760       10.62780        8.55770
O        -30.15420       11.39600        9.23580
C        -29.54360        9.12670        8.75640
O        -29.34600        8.42640        7.53740
C        -28.65460        5.72430        6.56710
C        -29.12280        5.54920        5.31680
C        -29.98330        4.36670        5.31840
C        -29.93930        3.84600        6.69530
C        -29.15070        4.66120        7.41580
C        -30.57700        2.70810        7.23640
N        -31.09910        1.77740        7.69290
C        -30.66580        3.91000        4.24920
C        -31.55100        2.74920        4.23660
C        -32.08060        2.62540        3.00310
C        -31.54840        3.69120        2.17160
C        -30.71010        4.45440        2.88700
C        -30.03540        5.56210        2.33750
N        -29.48570        6.47130        1.86550
C        -33.00710        1.58420        2.64920
C        -33.56480        1.45180        1.43530
C        -34.47380        0.39540        1.12370
S        -35.54840       -0.22740        2.32510
C        -36.21130       -1.36290        1.25720
C        -35.66570       -1.29090       -0.00140
C        -34.68870       -0.24620       -0.09280
S        -33.83460        0.19140       -1.58010
C        -32.95280       -1.35230       -1.90460
C        -33.83330       -2.57660       -1.85530
O        -33.33420       -3.69610       -1.70330
C        -35.33530       -2.40480       -2.05990
O        -36.13490       -2.16880       -0.92200
H         -1.32120       32.41970        4.43060
H         -3.77030       31.71600        4.44080
H          0.20120       30.27190        4.53610
H         -3.34670       26.80480        4.69550
H         -7.33440       28.18150        4.59260
H         -6.90870       25.46600        4.76350
H         -4.05720       24.73490        4.85870
H         -3.05950       19.98430        5.06000
H         -1.82590       20.18520        3.83300
H         -5.54660       18.45340        2.91920
H         -5.54820       20.18470        2.63870
H         -7.93290       18.90360        4.63870
H         -8.78000       21.43470        7.91390
H        -11.54600       17.27600        7.56670
H        -10.59420       14.75250        4.31590
H        -12.93230       15.09730        7.49380
H        -12.20850       13.35630        5.21360
H        -13.53390       11.16200       10.32380
H        -11.91430       10.56410       10.61310
H        -14.81330        8.17950        8.71980
H        -13.85470        9.08280        7.55890
H        -17.22770        9.42410        7.47490
H        -18.38770       13.37070        6.51100
H        -22.07030       10.08150        7.05680
H        -20.93020        6.11060        7.97280
H        -23.62460        6.69880        7.75290
H        -24.13380        9.52450        7.08140
H        -28.78580       10.76400        6.55590
H        -28.52560       12.20820        7.50950
H        -30.50750        8.87680        9.14790
H        -28.76840        8.83990        9.43600
H        -28.91160        6.14480        4.50080
H        -28.93270        4.54730        8.41810
H        -31.73980        2.12720        5.03820
H        -31.78130        3.83900        1.17720
H        -33.25940        0.89490        3.37460
H        -33.32830        2.13770        0.70140
H        -36.94640       -2.03650        1.52350
H        -32.18150       -1.46120       -1.17110
H        -32.56430       -1.28680       -2.89950
H        -35.69770       -3.29830       -2.52390
H        -35.42580       -1.51090       -2.64090
