118
862_642_01010101.out	Energy:   -4010.2388182
C         24.28270        8.36220       -5.47600
O         24.44760        9.01310       -4.30500
C         23.23490        9.45820       -3.86220
C         22.28200        9.06620       -4.79660
C         22.95800        8.37260       -5.81510
F         22.42600        7.83030       -6.89860
F         20.98560        9.31060       -4.72310
C         23.11980       10.18110       -2.65650
C         24.20920       10.48250       -1.86230
C         24.15200       11.20550       -0.67290
C         25.26210       11.54580        0.17120
C         26.61430       11.22970        0.02860
C         27.51330       11.66750        0.98720
C         27.07680       12.41090        2.08300
C         25.73490       12.73600        2.24000
C         24.81330       12.31430        1.28770
C         23.38000       12.49460        1.17980
C         22.94260       11.77670       -0.05400
O         21.79500       11.70400       -0.45070
C         22.45470       13.16870        1.92370
C         22.66720       13.95310        3.07960
C         21.65780       14.61310        3.72750
O         20.35030       14.55540        3.33170
C         19.57920       15.33860        4.15160
C         20.45590       15.91680        5.12400
C         21.71430       15.47190        4.86990
F         22.83720       15.74560        5.51230
F         20.04630       16.72880        6.07960
C         18.22890       15.48070        3.98940
C         17.49800       14.79810        2.98840
C         16.15310       14.92530        2.78020
C         15.35400       14.20280        1.80960
C         15.73090       13.25270        0.86700
C         14.75460       12.69270        0.05330
C         13.41930       13.07060        0.17500
C         13.02890       14.02030        1.11060
C         13.99590       14.59110        1.93060
C         13.86970       15.60100        2.96390
C         15.22940       15.82570        3.51930
O         15.53000       16.59570        4.41000
C         12.72200       16.23220        3.35680
C         12.65960       17.26030        4.32590
C         11.49140       17.84730        4.72740
O         10.25790       17.46140        4.27030
C          9.28400       18.22050        4.86550
C          9.94420       19.14740        5.73260
C         11.28080       18.91610        5.65480
F         12.26280       19.53120        6.28630
F          9.30230       20.03980        6.46280
C          7.94700       18.03720        4.64270
C          7.43280       17.03060        3.79300
C          6.10310       16.77320        3.60480
C          5.53190       15.71990        2.78740
C          6.15250       14.77880        1.97360
C          5.36620       13.85670        1.29460
C          3.97920       13.86780        1.42290
C          3.34560       14.80310        2.23100
C          4.12010       15.73350        2.91500
C          3.72410       16.80610        3.80700
C          4.96930       17.49080        4.24280
O          5.04450       18.44880        4.98670
C          2.45120       17.11510        4.19880
C          2.10560       18.18030        5.06280
C          0.82400       18.41320        5.48120
O         -0.23470       17.62200        5.12040
C         -1.38480       18.07120        5.71560
C         -1.02970       19.22560        6.48420
C          0.30700       19.43040        6.34230
F          1.05290       20.37770        6.87740
F         -1.88640       19.93560        7.19510
C         -2.56510       17.40340        5.51950
C         -3.78460       17.78580        6.12080
C         -5.00150       17.17170        6.03130
C         -5.49780       16.00030        5.34770
C         -4.86570       15.09800        4.49920
C         -5.58510       14.03790        3.96450
C         -6.93730       13.86770        4.26690
C         -7.59230       14.74970        5.10580
C         -6.89080       15.82870        5.66280
C         -7.31810       16.86610        6.53850
C         -6.15940       17.73960        6.78690
O         -6.13450       18.73620        7.47990
C         -8.55490       17.17270        7.16150
C         -9.72230       16.50080        7.10050
H         25.15990        7.95340       -5.94730
H         22.12100       10.49750       -2.38200
H         25.18450       10.13400       -2.19520
H         26.95870       10.64830       -0.81910
H         28.56640       11.42930        0.88790
H         27.79510       12.74100        2.82500
H         25.43100       13.31080        3.10570
H         21.42740       13.10760        1.56730
H         23.65900       14.08140        3.49290
H         17.72000       16.14160        4.67970
H         18.06190       14.11570        2.35630
H         16.76710       12.95120        0.76380
H         15.03440       11.95110       -0.68640
H         12.67520       12.61760       -0.47060
H         11.98680       14.30770        1.19540
H         11.78170       15.94490        2.89100
H         13.56930       17.63050        4.78180
H          7.27140       18.69430        5.17570
H          8.16270       16.40990        3.27740
H          7.23130       14.76050        1.86630
H          5.83750       13.11770        0.65640
H          3.38710       13.13640        0.88410
H          2.26530       14.80300        2.32300
H          1.63000       16.50280        3.83190
H          2.86990       18.85420        5.42870
H         -2.51820       16.53400        4.87540
H         -3.76500       18.67430        6.74910
H         -3.81890       15.20550        4.24400
H         -5.09150       13.33460        3.30350
H         -7.47910       13.03310        3.83610
H         -8.64200       14.59860        5.32190
H         -8.51580       18.07730        7.76740
H         -9.86320       15.59100        6.53620
H        -10.59060       16.85790        7.63640
